HEADER
"PSFversion" "1.00"
"simulator" "eldoD"
"date" "17-Oct-2007 17:26:20"
"netlistDir" "../netlist"
TYPE
"runObject" STRUCT(
"logName" ARRAY ( * ) STRING *
"parent" STRING *
"sweepVariable" ARRAY ( * ) STRING *
) PROP(
"key" "runObject"
)
VALUE
"Run1" "runObject" (
(
"logFile"
"artistLogFile"
)
""
()
)
END
