HEADER
"PSFversion" "1.00"
"design" "(\"hj03\" \"psftest\" \"schematic\" \"\")"
"simulator" "eldoD"
"temperature" "27"
"host" ""
"date" "Oct 17 17:26:14 2007"
"title" ""
"analysisList" "()"
END
