HEADER
"PSFversion" "1.00"
"__artInstanceTerminalDelimiter__" "."
"__artHierarchyDelimiter__" "."
