HEADER
"PSFversion" "1.00"
"PLUSv" ""
"MINUSv" "(FUNCTION minus(root(\"PLUS\")))"
