HEADER
"PSFversion" "1.00"
"vinv" "VIN"
"voutv" "VOUT"
"net9v" "NET9"
"gnd!v" "0"
