HEADER
"PSFversion" "1.00"
"VINv" "vin"
"VOUTv" "vout"
"NET9v" "net9"
"0v" "gnd!"
