HEADER
"PSFversion" "1.00"
"simulator" "Eldo"
"date" "23-Oct-2007 18:37:42"
TYPE
"sweep" FLOAT DOUBLE
"node" FLOAT DOUBLE PROP(
"key" "node"
"units" "V"
)
"branch" FLOAT DOUBLE PROP(
"key" "branch"
"units" "A"
)
"Gain" FLOAT DOUBLE PROP(
"key" "Gain"
"units" "-"
)
"circle" ARRAY ( 3 ) FLOAT DOUBLE PROP(
"key" "circle"
"units" "-"
)
SWEEP
"voltage" "sweep" PROP(
"units" "V"
)
TRACE
"group" GROUP 264
"XIVGA.ISUB(OUTN)" "branch"
"XIVGA.ISUB(OUTP)" "branch"
"XIVGA.ISUB(NSUP)" "branch"
"XIVGA.ISUB(PSUP)" "branch"
"XIVGA.ISUB(BIAS)" "branch"
"XIVGA.ISUB(GAINCTRL<2>)" "branch"
"XIVGA.ISUB(GAINCTRL<1>)" "branch"
"XIVGA.ISUB(GAINCTRL<0>)" "branch"
"XIVGA.ISUB(INN)" "branch"
"XIVGA.ISUB(INP)" "branch"
"XIVGA.ISUB(ON)" "branch"
"XIVGA.ISUB(VREF)" "branch"
"XIVGA.XIVGA0.ISUB(CMSENSE)" "branch"
"XIVGA.XIVGA0.ISUB(OUTN)" "branch"
"XIVGA.XIVGA0.ISUB(OUTP)" "branch"
"XIVGA.XIVGA0.ISUB(NSUP)" "branch"
"XIVGA.XIVGA0.ISUB(PSUP)" "branch"
"XIVGA.XIVGA0.ISUB(GAINCTRL<2>)" "branch"
"XIVGA.XIVGA0.ISUB(GAINCTRL<1>)" "branch"
"XIVGA.XIVGA0.ISUB(GAINCTRL<0>)" "branch"
"XIVGA.XIVGA0.ISUB(INN)" "branch"
"XIVGA.XIVGA0.ISUB(INP)" "branch"
"XIVGA.XIVGA0.ISUB(NBIASCG)" "branch"
"XIVGA.XIVGA0.ISUB(NBIASCMFB)" "branch"
"XIVGA.XIVGA0.ISUB(ON)" "branch"
"XIVGA.XIVGA0.ISUB(PBIAS)" "branch"
"XIVGA.XIVGA0.ISUB(PBIASCMFB)" "branch"
"XIVGA.XIVGA0.ISUB(VCASCODEBIAS)" "branch"
"XIVGA.XIVGA0.XM2BP.ISUB(D)" "branch"
"XIVGA.XIVGA0.XM2BP.ISUB(G)" "branch"
"XIVGA.XIVGA0.XM2BP.ISUB(S)" "branch"
"XIVGA.XIVGA0.XM2BP.ISUB(B)" "branch"
"XIVGA.XIVGA0.XM2BP.XMP.ISUB(N1)" "branch"
"XIVGA.XIVGA0.XM2BP.XMP.ISUB(N2)" "branch"
"XIVGA.XIVGA0.XM2BP.XMP.ISUB(N3)" "branch"
"XIVGA.XIVGA0.XM2BP.XMP.ISUB(N4)" "branch"
"XIVGA.XIVGA0.XMCGN.ISUB(D)" "branch"
"XIVGA.XIVGA0.XMCGN.ISUB(G)" "branch"
"XIVGA.XIVGA0.XMCGN.ISUB(S)" "branch"
"XIVGA.XIVGA0.XMCGN.ISUB(B)" "branch"
"XIVGA.XIVGA0.XMCGN.XMP.ISUB(N1)" "branch"
"XIVGA.XIVGA0.XMCGN.XMP.ISUB(N2)" "branch"
"XIVGA.XIVGA0.XMCGN.XMP.ISUB(N3)" "branch"
"XIVGA.XIVGA0.XMCGN.XMP.ISUB(N4)" "branch"
"XIVGA.XIVGA0.XMCGP.ISUB(D)" "branch"
"XIVGA.XIVGA0.XMCGP.ISUB(G)" "branch"
"XIVGA.XIVGA0.XMCGP.ISUB(S)" "branch"
"XIVGA.XIVGA0.XMCGP.ISUB(B)" "branch"
"XIVGA.XIVGA0.XMCGP.XMP.ISUB(N1)" "branch"
"XIVGA.XIVGA0.XMCGP.XMP.ISUB(N2)" "branch"
"XIVGA.XIVGA0.XMCGP.XMP.ISUB(N3)" "branch"
"XIVGA.XIVGA0.XMCGP.XMP.ISUB(N4)" "branch"
"XIVGA.XIVGA0.XM2BN.ISUB(D)" "branch"
"XIVGA.XIVGA0.XM2BN.ISUB(G)" "branch"
"XIVGA.XIVGA0.XM2BN.ISUB(S)" "branch"
"XIVGA.XIVGA0.XM2BN.ISUB(B)" "branch"
"XIVGA.XIVGA0.XM2BN.XMP.ISUB(N1)" "branch"
"XIVGA.XIVGA0.XM2BN.XMP.ISUB(N2)" "branch"
"XIVGA.XIVGA0.XM2BN.XMP.ISUB(N3)" "branch"
"XIVGA.XIVGA0.XM2BN.XMP.ISUB(N4)" "branch"
"XIVGA.XIVGA0.XM7.ISUB(D)" "branch"
"XIVGA.XIVGA0.XM7.ISUB(G)" "branch"
"XIVGA.XIVGA0.XM7.ISUB(S)" "branch"
"XIVGA.XIVGA0.XM7.ISUB(B)" "branch"
"XIVGA.XIVGA0.XM7.XMN.ISUB(N1)" "branch"
"XIVGA.XIVGA0.XM7.XMN.ISUB(N2)" "branch"
"XIVGA.XIVGA0.XM7.XMN.ISUB(N3)" "branch"
"XIVGA.XIVGA0.XM7.XMN.ISUB(N4)" "branch"
"XIVGA.XIVGA0.XM8.ISUB(D)" "branch"
"XIVGA.XIVGA0.XM8.ISUB(G)" "branch"
"XIVGA.XIVGA0.XM8.ISUB(S)" "branch"
"XIVGA.XIVGA0.XM8.ISUB(B)" "branch"
"XIVGA.XIVGA0.XM8.XMN.ISUB(N1)" "branch"
"XIVGA.XIVGA0.XM8.XMN.ISUB(N2)" "branch"
"XIVGA.XIVGA0.XM8.XMN.ISUB(N3)" "branch"
"XIVGA.XIVGA0.XM8.XMN.ISUB(N4)" "branch"
"XIVGA.XIVGA0.XM2N.ISUB(D)" "branch"
"XIVGA.XIVGA0.XM2N.ISUB(G)" "branch"
"XIVGA.XIVGA0.XM2N.ISUB(S)" "branch"
"XIVGA.XIVGA0.XM2N.ISUB(B)" "branch"
"XIVGA.XIVGA0.XM2N.XMN.ISUB(N1)" "branch"
"XIVGA.XIVGA0.XM2N.XMN.ISUB(N2)" "branch"
"XIVGA.XIVGA0.XM2N.XMN.ISUB(N3)" "branch"
"XIVGA.XIVGA0.XM2N.XMN.ISUB(N4)" "branch"
"XIVGA.XIVGA0.XMCGBP.ISUB(D)" "branch"
"XIVGA.XIVGA0.XMCGBP.ISUB(G)" "branch"
"XIVGA.XIVGA0.XMCGBP.ISUB(S)" "branch"
"XIVGA.XIVGA0.XMCGBP.ISUB(B)" "branch"
"XIVGA.XIVGA0.XMCGBP.XMN.ISUB(N1)" "branch"
"XIVGA.XIVGA0.XMCGBP.XMN.ISUB(N2)" "branch"
"XIVGA.XIVGA0.XMCGBP.XMN.ISUB(N3)" "branch"
"XIVGA.XIVGA0.XMCGBP.XMN.ISUB(N4)" "branch"
"XIVGA.XIVGA0.XM2P.ISUB(D)" "branch"
"XIVGA.XIVGA0.XM2P.ISUB(G)" "branch"
"XIVGA.XIVGA0.XM2P.ISUB(S)" "branch"
"XIVGA.XIVGA0.XM2P.ISUB(B)" "branch"
"XIVGA.XIVGA0.XM2P.XMN.ISUB(N1)" "branch"
"XIVGA.XIVGA0.XM2P.XMN.ISUB(N2)" "branch"
"XIVGA.XIVGA0.XM2P.XMN.ISUB(N3)" "branch"
"XIVGA.XIVGA0.XM2P.XMN.ISUB(N4)" "branch"
"XIVGA.XIVGA0.XMCGBN.ISUB(D)" "branch"
"XIVGA.XIVGA0.XMCGBN.ISUB(G)" "branch"
"XIVGA.XIVGA0.XMCGBN.ISUB(S)" "branch"
"XIVGA.XIVGA0.XMCGBN.ISUB(B)" "branch"
"XIVGA.XIVGA0.XMCGBN.XMN.ISUB(N1)" "branch"
"XIVGA.XIVGA0.XMCGBN.XMN.ISUB(N2)" "branch"
"XIVGA.XIVGA0.XMCGBN.XMN.ISUB(N3)" "branch"
"XIVGA.XIVGA0.XMCGBN.XMN.ISUB(N4)" "branch"
"XIVGA.XIVGA0.XM1N.ISUB(D)" "branch"
"XIVGA.XIVGA0.XM1N.ISUB(G)" "branch"
"XIVGA.XIVGA0.XM1N.ISUB(S)" "branch"
"XIVGA.XIVGA0.XM1N.ISUB(B)" "branch"
"XIVGA.XIVGA0.XM1N.XMN.ISUB(N1)" "branch"
"XIVGA.XIVGA0.XM1N.XMN.ISUB(N2)" "branch"
"XIVGA.XIVGA0.XM1N.XMN.ISUB(N3)" "branch"
"XIVGA.XIVGA0.XM1N.XMN.ISUB(N4)" "branch"
"XIVGA.XIVGA0.XM1P.ISUB(D)" "branch"
"XIVGA.XIVGA0.XM1P.ISUB(G)" "branch"
"XIVGA.XIVGA0.XM1P.ISUB(S)" "branch"
"XIVGA.XIVGA0.XM1P.ISUB(B)" "branch"
"XIVGA.XIVGA0.XM1P.XMN.ISUB(N1)" "branch"
"XIVGA.XIVGA0.XM1P.XMN.ISUB(N2)" "branch"
"XIVGA.XIVGA0.XM1P.XMN.ISUB(N3)" "branch"
"XIVGA.XIVGA0.XM1P.XMN.ISUB(N4)" "branch"
"XIVGA.XIVGA0.XM1BN.ISUB(D)" "branch"
"XIVGA.XIVGA0.XM1BN.ISUB(G)" "branch"
"XIVGA.XIVGA0.XM1BN.ISUB(S)" "branch"
"XIVGA.XIVGA0.XM1BN.ISUB(B)" "branch"
"XIVGA.XIVGA0.XM1BN.XMN.ISUB(N1)" "branch"
"XIVGA.XIVGA0.XM1BN.XMN.ISUB(N2)" "branch"
"XIVGA.XIVGA0.XM1BN.XMN.ISUB(N3)" "branch"
"XIVGA.XIVGA0.XM1BN.XMN.ISUB(N4)" "branch"
"XIVGA.XIVGA0.XM1BPN.ISUB(D)" "branch"
"XIVGA.XIVGA0.XM1BPN.ISUB(G)" "branch"
"XIVGA.XIVGA0.XM1BPN.ISUB(S)" "branch"
"XIVGA.XIVGA0.XM1BPN.ISUB(B)" "branch"
"XIVGA.XIVGA0.XM1BPN.XMP.ISUB(N1)" "branch"
"XIVGA.XIVGA0.XM1BPN.XMP.ISUB(N2)" "branch"
"XIVGA.XIVGA0.XM1BPN.XMP.ISUB(N3)" "branch"
"XIVGA.XIVGA0.XM1BPN.XMP.ISUB(N4)" "branch"
"XIVGA.XIVGA0.XM1BPP.ISUB(D)" "branch"
"XIVGA.XIVGA0.XM1BPP.ISUB(G)" "branch"
"XIVGA.XIVGA0.XM1BPP.ISUB(S)" "branch"
"XIVGA.XIVGA0.XM1BPP.ISUB(B)" "branch"
"XIVGA.XIVGA0.XM1BPP.XMP.ISUB(N1)" "branch"
"XIVGA.XIVGA0.XM1BPP.XMP.ISUB(N2)" "branch"
"XIVGA.XIVGA0.XM1BPP.XMP.ISUB(N3)" "branch"
"XIVGA.XIVGA0.XM1BPP.XMP.ISUB(N4)" "branch"
"XIVGA.XIVGA0.XI19.ISUB(OUTN)" "branch"
"XIVGA.XIVGA0.XI19.ISUB(OUTP)" "branch"
"XIVGA.XIVGA0.XI19.ISUB(INN)" "branch"
"XIVGA.XIVGA0.XI19.ISUB(INP)" "branch"
"XIVGA.XIBIAS.ISUB(NBIASCG)" "branch"
"XIVGA.XIBIAS.ISUB(NBIASCMFB)" "branch"
"XIVGA.XIBIAS.ISUB(PBIAS)" "branch"
"XIVGA.XIBIAS.ISUB(PBIASCMFB)" "branch"
"XIVGA.XIBIAS.ISUB(VCASCODEBIAS)" "branch"
"XIVGA.XIBIAS.ISUB(NSUP)" "branch"
"XIVGA.XIBIAS.ISUB(PSUP)" "branch"
"XIVGA.XIBIAS.ISUB(BIAS)" "branch"
"XIVGA.XIBIAS.ISUB(CMSENSE)" "branch"
"XIVGA.XIBIAS.ISUB(ON)" "branch"
"XIVGA.XIBIAS.ISUB(VREF)" "branch"
"XIVGA.XIBIAS.XM2BM.ISUB(D)" "branch"
"XIVGA.XIBIAS.XM2BM.ISUB(G)" "branch"
"XIVGA.XIBIAS.XM2BM.ISUB(S)" "branch"
"XIVGA.XIBIAS.XM2BM.ISUB(B)" "branch"
"XIVGA.XIBIAS.XM2BM.XMP.ISUB(N1)" "branch"
"XIVGA.XIBIAS.XM2BM.XMP.ISUB(N2)" "branch"
"XIVGA.XIBIAS.XM2BM.XMP.ISUB(N3)" "branch"
"XIVGA.XIBIAS.XM2BM.XMP.ISUB(N4)" "branch"
"XIVGA.XIBIAS.XMCGBM.ISUB(D)" "branch"
"XIVGA.XIBIAS.XMCGBM.ISUB(G)" "branch"
"XIVGA.XIBIAS.XMCGBM.ISUB(S)" "branch"
"XIVGA.XIBIAS.XMCGBM.ISUB(B)" "branch"
"XIVGA.XIBIAS.XMCGBM.XMN.ISUB(N1)" "branch"
"XIVGA.XIBIAS.XMCGBM.XMN.ISUB(N2)" "branch"
"XIVGA.XIBIAS.XMCGBM.XMN.ISUB(N3)" "branch"
"XIVGA.XIBIAS.XMCGBM.XMN.ISUB(N4)" "branch"
"XIVGA.XIBIAS.XMCMFBB.ISUB(D)" "branch"
"XIVGA.XIBIAS.XMCMFBB.ISUB(G)" "branch"
"XIVGA.XIBIAS.XMCMFBB.ISUB(S)" "branch"
"XIVGA.XIBIAS.XMCMFBB.ISUB(B)" "branch"
"XIVGA.XIBIAS.XMCMFBB.XMN.ISUB(N1)" "branch"
"XIVGA.XIBIAS.XMCMFBB.XMN.ISUB(N2)" "branch"
"XIVGA.XIBIAS.XMCMFBB.XMN.ISUB(N3)" "branch"
"XIVGA.XIBIAS.XMCMFBB.XMN.ISUB(N4)" "branch"
"XIVGA.XIBIAS.XMCMFBBM.ISUB(D)" "branch"
"XIVGA.XIBIAS.XMCMFBBM.ISUB(G)" "branch"
"XIVGA.XIBIAS.XMCMFBBM.ISUB(S)" "branch"
"XIVGA.XIBIAS.XMCMFBBM.ISUB(B)" "branch"
"XIVGA.XIBIAS.XMCMFBBM.XMN.ISUB(N1)" "branch"
"XIVGA.XIBIAS.XMCMFBBM.XMN.ISUB(N2)" "branch"
"XIVGA.XIBIAS.XMCMFBBM.XMN.ISUB(N3)" "branch"
"XIVGA.XIBIAS.XMCMFBBM.XMN.ISUB(N4)" "branch"
"XIVGA.XIBIAS.XMCMFB1P.ISUB(D)" "branch"
"XIVGA.XIBIAS.XMCMFB1P.ISUB(G)" "branch"
"XIVGA.XIBIAS.XMCMFB1P.ISUB(S)" "branch"
"XIVGA.XIBIAS.XMCMFB1P.ISUB(B)" "branch"
"XIVGA.XIBIAS.XMCMFB1P.XMN.ISUB(N1)" "branch"
"XIVGA.XIBIAS.XMCMFB1P.XMN.ISUB(N2)" "branch"
"XIVGA.XIBIAS.XMCMFB1P.XMN.ISUB(N3)" "branch"
"XIVGA.XIBIAS.XMCMFB1P.XMN.ISUB(N4)" "branch"
"XIVGA.XIBIAS.XMCMFB1N.ISUB(D)" "branch"
"XIVGA.XIBIAS.XMCMFB1N.ISUB(G)" "branch"
"XIVGA.XIBIAS.XMCMFB1N.ISUB(S)" "branch"
"XIVGA.XIBIAS.XMCMFB1N.ISUB(B)" "branch"
"XIVGA.XIBIAS.XMCMFB1N.XMN.ISUB(N1)" "branch"
"XIVGA.XIBIAS.XMCMFB1N.XMN.ISUB(N2)" "branch"
"XIVGA.XIBIAS.XMCMFB1N.XMN.ISUB(N3)" "branch"
"XIVGA.XIBIAS.XMCMFB1N.XMN.ISUB(N4)" "branch"
"XIVGA.XIBIAS.XM1BNM.ISUB(D)" "branch"
"XIVGA.XIBIAS.XM1BNM.ISUB(G)" "branch"
"XIVGA.XIBIAS.XM1BNM.ISUB(S)" "branch"
"XIVGA.XIBIAS.XM1BNM.ISUB(B)" "branch"
"XIVGA.XIBIAS.XM1BNM.XMN.ISUB(N1)" "branch"
"XIVGA.XIBIAS.XM1BNM.XMN.ISUB(N2)" "branch"
"XIVGA.XIBIAS.XM1BNM.XMN.ISUB(N3)" "branch"
"XIVGA.XIBIAS.XM1BNM.XMN.ISUB(N4)" "branch"
"XIVGA.XIBIAS.XM1BPM.ISUB(D)" "branch"
"XIVGA.XIBIAS.XM1BPM.ISUB(G)" "branch"
"XIVGA.XIBIAS.XM1BPM.ISUB(S)" "branch"
"XIVGA.XIBIAS.XM1BPM.ISUB(B)" "branch"
"XIVGA.XIBIAS.XM1BPM.XMP.ISUB(N1)" "branch"
"XIVGA.XIBIAS.XM1BPM.XMP.ISUB(N2)" "branch"
"XIVGA.XIBIAS.XM1BPM.XMP.ISUB(N3)" "branch"
"XIVGA.XIBIAS.XM1BPM.XMP.ISUB(N4)" "branch"
"XIVGA.XIBIAS.XMCMFB2N.ISUB(D)" "branch"
"XIVGA.XIBIAS.XMCMFB2N.ISUB(G)" "branch"
"XIVGA.XIBIAS.XMCMFB2N.ISUB(S)" "branch"
"XIVGA.XIBIAS.XMCMFB2N.ISUB(B)" "branch"
"XIVGA.XIBIAS.XMCMFB2N.XMP.ISUB(N1)" "branch"
"XIVGA.XIBIAS.XMCMFB2N.XMP.ISUB(N2)" "branch"
"XIVGA.XIBIAS.XMCMFB2N.XMP.ISUB(N3)" "branch"
"XIVGA.XIBIAS.XMCMFB2N.XMP.ISUB(N4)" "branch"
"XIVGA.XIBIAS.XMCMFB4.ISUB(D)" "branch"
"XIVGA.XIBIAS.XMCMFB4.ISUB(G)" "branch"
"XIVGA.XIBIAS.XMCMFB4.ISUB(S)" "branch"
"XIVGA.XIBIAS.XMCMFB4.ISUB(B)" "branch"
"XIVGA.XIBIAS.XMCMFB4.XMP.ISUB(N1)" "branch"
"XIVGA.XIBIAS.XMCMFB4.XMP.ISUB(N2)" "branch"
"XIVGA.XIBIAS.XMCMFB4.XMP.ISUB(N3)" "branch"
"XIVGA.XIBIAS.XMCMFB4.XMP.ISUB(N4)" "branch"
"XIVGA.XIBIAS.XMCMFB2P.ISUB(D)" "branch"
"XIVGA.XIBIAS.XMCMFB2P.ISUB(G)" "branch"
"XIVGA.XIBIAS.XMCMFB2P.ISUB(S)" "branch"
"XIVGA.XIBIAS.XMCMFB2P.ISUB(B)" "branch"
"XIVGA.XIBIAS.XMCMFB2P.XMP.ISUB(N1)" "branch"
"XIVGA.XIBIAS.XMCMFB2P.XMP.ISUB(N2)" "branch"
"XIVGA.XIBIAS.XMCMFB2P.XMP.ISUB(N3)" "branch"
"XIVGA.XIBIAS.XMCMFB2P.XMP.ISUB(N4)" "branch"
"XIVGA.XIBIAS.XMCMFB3.ISUB(D)" "branch"
"XIVGA.XIBIAS.XMCMFB3.ISUB(G)" "branch"
"XIVGA.XIBIAS.XMCMFB3.ISUB(S)" "branch"
"XIVGA.XIBIAS.XMCMFB3.ISUB(B)" "branch"
"XIVGA.XIBIAS.XMCMFB3.XMP.ISUB(N1)" "branch"
"XIVGA.XIBIAS.XMCMFB3.XMP.ISUB(N2)" "branch"
"XIVGA.XIBIAS.XMCMFB3.XMP.ISUB(N3)" "branch"
"XIVGA.XIBIAS.XMCMFB3.XMP.ISUB(N4)" "branch"
"XI8.ISUB(MINUS)" "branch"
"XI8.ISUB(PLUS)" "branch"
"XI8.ISUB(CM)" "branch"
"XI8.ISUB(INN)" "branch"
"XI8.ISUB(INP)" "branch"
VALUE
"voltage" 100.000
"group" -7.94991e-17
-4.04678e-17
-0.00452393
0.00452393
0.00000
0.00000
0.00000
0.00000
4.92152e-10
4.92152e-10
0.00000
1.36124e-11
-1.46726e-11
-7.94991e-17
-4.04678e-17
-0.00210501
0.00210501
0.00000
0.00000
0.00000
4.92152e-10
4.92152e-10
7.91366e-10
2.72954e-09
0.00000
-2.20283e-09
-7.97104e-12
-1.14854e-11
-0.000595131
-3.98552e-12
0.000595131
7.42969e-13
-0.000595131
-3.98552e-12
0.000595131
7.42969e-13
-4.98945e-05
-5.74268e-12
4.98945e-05
6.26631e-13
-4.98945e-05
-5.74268e-12
4.98945e-05
6.26631e-13
-4.98945e-05
-5.74268e-12
4.98945e-05
6.26631e-13
-4.98945e-05
-5.74268e-12
4.98945e-05
6.26631e-13
-0.000595131
-3.98552e-12
0.000595131
7.42969e-13
-0.000595131
-3.98552e-12
0.000595131
7.42969e-13
1.28022e-05
2.34552e-11
-1.28023e-05
-1.42300e-12
1.28022e-05
2.34552e-11
-1.28023e-05
-1.42300e-12
1.28022e-05
2.34552e-11
-1.28023e-05
-1.42300e-12
1.28022e-05
2.34552e-11
-1.28023e-05
-1.42300e-12
0.000356546
1.04674e-11
-0.000356546
-1.03221e-12
0.000356546
1.04674e-11
-0.000356546
-1.03221e-12
4.98945e-05
3.95683e-10
-4.98949e-05
-8.45896e-13
4.98945e-05
3.95683e-10
-4.98949e-05
-8.45896e-13
0.000356546
1.04674e-11
-0.000356546
-1.03221e-12
0.000356546
1.04674e-11
-0.000356546
-1.03221e-12
4.98945e-05
3.95683e-10
-4.98949e-05
-8.45896e-13
4.98945e-05
3.95683e-10
-4.98949e-05
-8.45896e-13
0.000394674
4.68697e-10
-0.000394674
-7.48152e-12
0.000394674
4.68697e-10
-0.000394674
-7.48152e-12
0.000394674
4.68697e-10
-0.000394674
-7.48152e-12
0.000394674
4.68697e-10
-0.000394674
-7.48152e-12
0.00129212
2.72954e-09
-0.00129213
-8.90197e-12
0.00129212
2.72954e-09
-0.00129213
-8.90197e-12
-0.000457370
-1.10141e-09
0.000457371
2.64185e-10
-0.000457370
-1.10141e-09
0.000457371
2.64185e-10
-0.000457370
-1.10141e-09
0.000457371
2.64185e-10
-0.000457370
-1.10141e-09
0.000457371
2.64185e-10
0.000407476
0.000407476
-0.000407476
-0.000407476
-7.91366e-10
-2.72953e-09
2.20283e-09
7.97098e-12
1.14854e-11
-0.00241892
0.00241893
0.00000
1.46726e-11
0.00000
1.36124e-11
-0.000599207
-3.98310e-12
0.000599207
7.61233e-13
-0.000599207
-3.98310e-12
0.000599207
7.61233e-13
4.99988e-05
3.95361e-10
-4.99992e-05
-8.77561e-13
4.99988e-05
3.95361e-10
-4.99992e-05
-8.77561e-13
9.56242e-05
3.54939e-11
-9.56242e-05
-7.76672e-13
9.56242e-05
3.54939e-11
-9.56242e-05
-7.76672e-13
9.99999e-05
3.51404e-11
-1.00000e-04
-9.34546e-13
9.99999e-05
3.51404e-11
-1.00000e-04
-9.34546e-13
5.05811e-05
1.46726e-11
-5.05811e-05
-1.15605e-12
5.05811e-05
1.46726e-11
-5.05811e-05
-1.15605e-12
4.50431e-05
1.36124e-11
-4.50431e-05
-1.17238e-12
4.50431e-05
1.36124e-11
-4.50431e-05
-1.17238e-12
0.000607135
1.25796e-09
-0.000607136
-4.69282e-12
0.000607135
1.25796e-09
-0.000607136
-4.69282e-12
-0.000463557
-1.08848e-09
0.000463557
1.27459e-09
-0.000463557
-1.08848e-09
0.000463557
1.27459e-09
-4.50431e-05
-5.41134e-12
4.50431e-05
5.07586e-12
-4.50431e-05
-5.41134e-12
4.50431e-05
2.08654e-12
-0.000503398
-6.01445e-11
0.000503398
2.64122e-11
-0.000503398
-6.01445e-11
0.000503398
1.50235e-11
-5.05810e-05
-5.99422e-12
5.05810e-05
5.09863e-12
-5.05810e-05
-5.99422e-12
5.05810e-05
2.10932e-12
-0.000448578
-5.42828e-11
0.000448578
2.63572e-11
-0.000448578
-5.42828e-11
0.000448578
1.49685e-11
-4.92152e-10
-4.92152e-10
9.84305e-10
0.00000
0.00000
END
