HEADER
"PSFversion" "1.00"
"v" "PLUS"
"(FUNCTION minus(root(\"PLUS\")))v" "MINUS"
