HEADER
"PSFversion" "1.00"
"PLUSv" ""
"MINUSv" "(FUNCTION minus(root(\"PLUS\")))"
"NC+v" "(FUNCTION zero(root(\"PLUS\")))"
"NC-v" "(FUNCTION zero(root(\"PLUS\")))"
"(op ?)p" "v i"
"(op v)p" "OP(inst() \"v12\")"
"(op i)p" "OP(inst() \"id\")"
"(opt ?)p" "v i"
"(opt v)p" "OPT(inst() \"v12\")"
"(opt i)p" "OPT(inst() \"id\")"
