HEADER
"PSFversion" "1.00"
"simulator" "spectre"
"version" "5.0.33.071304"
"date" "2:30:26 PM, Thur Sep 27, 2007"
"design" "// Generated for: spectre"
"analysis type" "dc"
"analysis name" "dc"
"analysis description" "DC Analysis `dc': vdc = (-500e-03 -> 500e-03)"
"tolerance.relative" 0.00100000
"reltol" 0.00100000
"abstol(I)" 1.00000e-12
"abstol(V)" 1.00000e-06
"temp" 27.0000
"tnom" 27.0000
"tempeffects" "all"
"gmin" 1.00000e-12
TYPE
"sweep" FLOAT DOUBLE PROP(
"key" "sweep"
)
"I" FLOAT DOUBLE PROP(
"units" "A"
"key" "branch"
"tolerance" 1.00000e-12
)
"V" FLOAT DOUBLE PROP(
"units" "V"
"key" "node"
"tolerance" 1.00000e-06
)
"U" FLOAT DOUBLE PROP(
"key" "node"
"tolerance" 1.00000e-06
)
"F" FLOAT DOUBLE PROP(
"units" "Hz"
"key" "node"
"tolerance" 0.00100000
)
"PF" FLOAT DOUBLE PROP(
"units" "{none}"
"key" "node"
"tolerance" 0.00100000
)
"Pow" FLOAT DOUBLE PROP(
"units" "W"
"key" "node"
"tolerance" 1.00000e-09
)
"P" FLOAT DOUBLE PROP(
"units" "Watts"
"key" "node"
"tolerance" 0.00100000
)
"Q" FLOAT DOUBLE PROP(
"units" "C"
"key" "node"
"tolerance" 1.00000e-15
)
"Z" FLOAT DOUBLE PROP(
"units" "Ohms"
"key" "node"
"tolerance" 0.00100000
)
"Tau" FLOAT DOUBLE PROP(
"units" "N*m"
"key" "node"
"tolerance" 1.00000e-06
)
"Alpha" FLOAT DOUBLE PROP(
"units" "rads/s^2"
"key" "node"
"tolerance" 1.00000e-06
)
"Omega" FLOAT DOUBLE PROP(
"units" "rads/s"
"key" "node"
"tolerance" 1.00000e-06
)
"Theta" FLOAT DOUBLE PROP(
"units" "rads"
"key" "node"
"tolerance" 1.00000e-06
)
"Imp" FLOAT DOUBLE PROP(
"units" "m/s^3"
"key" "node"
"tolerance" 1.00000e-06
)
"Acc" FLOAT DOUBLE PROP(
"units" "m/s^2"
"key" "node"
"tolerance" 1.00000e-06
)
"Vel" FLOAT DOUBLE PROP(
"units" "m/s"
"key" "node"
"tolerance" 1.00000e-06
)
"Pos" FLOAT DOUBLE PROP(
"units" "m"
"key" "node"
"tolerance" 1.00000e-06
)
"Pwr" FLOAT DOUBLE PROP(
"units" "W"
"key" "node"
"tolerance" 1.00000e-09
)
"Temp" FLOAT DOUBLE PROP(
"units" "C"
"key" "node"
"tolerance" 0.000100000
)
"MMF" FLOAT DOUBLE PROP(
"units" "A*turn"
"key" "node"
"tolerance" 1.00000e-12
)
"Phi" FLOAT DOUBLE PROP(
"units" "Wb"
"key" "node"
"tolerance" 1.00000e-09
)
"Wb" FLOAT DOUBLE PROP(
"units" "Wb"
"key" "node"
"tolerance" 1.00000e-09
)
SWEEP
"vdc" "sweep" PROP(
"sweep_direction" 0
"plot" 0
"grid" 1
)
TRACE
"AGND" "V"
"AUDOL" "V"
"AUDOR" "V"
"DAC_CLK" "V"
"dac_l" "V"
"dac_r" "V"
"ls_dac_clk" "V"
"ls_dac_l" "V"
"ls_dac_l_bar" "V"
"ls_dac_r" "V"
"ls_dac_r_bar" "V"
"net9" "V"
"net11" "V"
"net17" "V"
"net22" "V"
"net23" "V"
"net29" "V"
"net36" "V"
"net37" "V"
"net38" "V"
"net40" "V"
"net41" "V"
"net42" "V"
"net058" "V"
"net078" "V"
"net0117" "V"
"net0119" "V"
"net0133" "V"
"net0148" "V"
"V0:p" "I"
"V1:p" "I"
"V2:p" "I"
"V3:p" "I"
"V4:p" "I"
"V5:p" "I"
"V6:p" "I"
"V7:p" "I"
"V8:p" "I"
"V9:p" "I"
"V10:p" "I"
"V11:p" "I"
"VDD_1V2" "V"
"VDDA" "V"
"vbgap" "V"
"vdd!" "V"
"DACTOP_0.ADCDIFFSE_0.enQ" "V"
"DACTOP_0.ADCDIFFSE_0.net034" "V"
"DACTOP_0.ADCDIFFSE_0.net39" "V"
"DACTOP_0.ADCDIFFSE_0.net45" "V"
"DACTOP_0.ADCDIFFSE_0.net47" "V"
"DACTOP_0.ADCDIFFSE_0.net058" "V"
"DACTOP_0.ADCDIFFSE_0.net059" "V"
"DACTOP_0.DAC5UBIAS_0.enable" "V"
"DACTOP_0.DAC5UBIAS_0.net26" "V"
"DACTOP_0.DAC5UBIAS_0.net061" "V"
"DACTOP_0.DAC5UBIAS_0.net068" "V"
"DACTOP_0.DAC5UBIAS_0.net069" "V"
"DACTOP_0.DAC5UBIAS_0.net080" "V"
"DACTOP_0.DAC5UBIAS_0.R3.1" "V"
"DACTOP_0.DAC5UBIAS_0.R3.r1:a_a_probe" "V"
"DACTOP_0.DAC5UBIAS_0.R3.r1:a_a_probe_flow" "I"
"DACTOP_0.DAC5UBIAS_0.R3.r1:a_n1_flow" "I"
"DACTOP_0.DAC5UBIAS_0.R3.r1:a_n1_probe" "V"
"DACTOP_0.DIV2_0.enQ" "V"
"DACTOP_0.DIV2_0.I27.evinj:p" "I"
"DACTOP_0.DIV2_0.I27.inout" "V"
"DACTOP_0.DIV2_0.I27.vinj" "I"
"DACTOP_0.DIV2_0.I27.vprb" "I"
"DACTOP_0.DIV2_0.im" "V"
"DACTOP_0.DIV2_0.ip" "V"
"DACTOP_0.DIV2_0.net44" "V"
"DACTOP_0.DIV2_0.net045" "V"
"DACTOP_0.DIV2_0.net048" "V"
"DACTOP_0.DIV2_0.net53" "V"
"DACTOP_0.DIV2_0.net56" "V"
"DACTOP_0.DIV2_0.net060" "V"
"DACTOP_0.DIV2_0.net71" "V"
"DACTOP_0.DIV2_0.net74" "V"
"DACTOP_0.DIV2_0.net081" "V"
"DACTOP_0.DIV2_0.net83" "V"
"DACTOP_0.DIV2_0.net0100" "V"
"DACTOP_0.DIV2_0.net0105" "V"
"DACTOP_0.DIV2_0.net0107" "V"
"DACTOP_0.DIV2_0.net0108" "V"
"DACTOP_0.DIV2_0.net0113" "V"
"DACTOP_0.DIV2_0.net0114" "V"
"DACTOP_0.DIV2_0.net0163" "V"
"DACTOP_0.DIV2_0.V1:p" "I"
"DACTOP_0.DIV2_1.enQ" "V"
"DACTOP_0.DIV2_1.im" "V"
"DACTOP_0.DIV2_1.ip" "V"
"DACTOP_0.DIV2_1.net44" "V"
"DACTOP_0.DIV2_1.net045" "V"
"DACTOP_0.DIV2_1.net048" "V"
"DACTOP_0.DIV2_1.net53" "V"
"DACTOP_0.DIV2_1.net56" "V"
"DACTOP_0.DIV2_1.net060" "V"
"DACTOP_0.DIV2_1.net71" "V"
"DACTOP_0.DIV2_1.net74" "V"
"DACTOP_0.DIV2_1.net081" "V"
"DACTOP_0.DIV2_1.net83" "V"
"DACTOP_0.DIV2_1.net0105" "V"
"DACTOP_0.DIV2_1.net0107" "V"
"DACTOP_0.DIV2_1.net0108" "V"
"DACTOP_0.DIV2_1.net0111" "V"
"DACTOP_0.DIV2_1.net0114" "V"
"DACTOP_0.FEIQV2I_0.net15" "V"
"DACTOP_0.FEIQV2I_0.net17" "V"
"DACTOP_0.FEIQV2I_0.net23" "V"
"DACTOP_0.FEIQV2I_0.net25" "V"
"DACTOP_0.FEIQV2I_0.net041" "V"
"DACTOP_0.FEIQV2I_0.net044" "V"
"DACTOP_0.FEIQV2I_0.R0.1" "V"
"DACTOP_0.FEIQV2I_0.R0.r1:a_a_probe" "V"
"DACTOP_0.FEIQV2I_0.R0.r1:a_a_probe_flow" "I"
"DACTOP_0.FEIQV2I_0.R0.r1:a_n1_flow" "I"
"DACTOP_0.FEIQV2I_0.R0.r1:a_n1_probe" "V"
"DACTOP_0.FEIQV2I_0.R2.1" "V"
"DACTOP_0.FEIQV2I_0.R2.r1:a_a_probe" "V"
"DACTOP_0.FEIQV2I_0.R2.r1:a_a_probe_flow" "I"
"DACTOP_0.FEIQV2I_0.R2.r1:a_n1_flow" "I"
"DACTOP_0.FEIQV2I_0.R2.r1:a_n1_probe" "V"
"DACTOP_0.FEIQV2I_0.R3.1" "V"
"DACTOP_0.FEIQV2I_0.R3.r1:a_a_probe" "V"
"DACTOP_0.FEIQV2I_0.R3.r1:a_a_probe_flow" "I"
"DACTOP_0.FEIQV2I_0.R3.r1:a_n1_flow" "I"
"DACTOP_0.FEIQV2I_0.R3.r1:a_n1_probe" "V"
"DACTOP_0.FEIQV2I_0.R4.1" "V"
"DACTOP_0.FEIQV2I_0.R4.r1:a_a_probe" "V"
"DACTOP_0.FEIQV2I_0.R4.r1:a_a_probe_flow" "I"
"DACTOP_0.FEIQV2I_0.R4.r1:a_n1_flow" "I"
"DACTOP_0.FEIQV2I_0.R4.r1:a_n1_probe" "V"
"DACTOP_0.FEIQV2I_0.R5.1" "V"
"DACTOP_0.FEIQV2I_0.R5.r1:a_a_probe" "V"
"DACTOP_0.FEIQV2I_0.R5.r1:a_a_probe_flow" "I"
"DACTOP_0.FEIQV2I_0.R5.r1:a_n1_flow" "I"
"DACTOP_0.FEIQV2I_0.R5.r1:a_n1_probe" "V"
"DACTOP_0.FEIQV2I_0.R6.1" "V"
"DACTOP_0.FEIQV2I_0.R6.r1:a_a_probe" "V"
"DACTOP_0.FEIQV2I_0.R6.r1:a_a_probe_flow" "I"
"DACTOP_0.FEIQV2I_0.R6.r1:a_n1_flow" "I"
"DACTOP_0.FEIQV2I_0.R6.r1:a_n1_probe" "V"
"DACTOP_0.I5u_dff1" "V"
"DACTOP_0.I5u_dff2" "V"
"DACTOP_0.I5u_dse" "V"
"DACTOP_0.I17.net7" "V"
"DACTOP_0.I17.net15" "V"
"DACTOP_0.I25.net9" "V"
"DACTOP_0.I26.net3" "V"
"DACTOP_0.I27.net10" "V"
"DACTOP_0.I32.net3" "V"
"DACTOP_0.I33.net3" "V"
"DACTOP_0.net10" "V"
"DACTOP_0.net16" "V"
"DACTOP_0.net027" "V"
"DACTOP_0.net044" "V"
"DACTOP_0.net048" "V"
"DACTOP_0.net051" "V"
"DACTOP_0.net056" "V"
"DACTOP_0.net070" "V"
"DACTOP_0.net071" "V"
"DACTOP_0.net072" "V"
"DACTOP_0.net074" "V"
"DACTOP_0.net079" "V"
"DACTOP_0.net081" "V"
"DACTOP_0.net084" "V"
"DACTOP_0.net086" "V"
"DACTOP_0.R0.1" "V"
"DACTOP_0.R0.r1:a_a_probe" "V"
"DACTOP_0.R0.r1:a_a_probe_flow" "I"
"DACTOP_0.R0.r1:a_n1_flow" "I"
"DACTOP_0.R0.r1:a_n1_probe" "V"
"DACTOP_0.R1.1" "V"
"DACTOP_0.R1.r1:a_a_probe" "V"
"DACTOP_0.R1.r1:a_a_probe_flow" "I"
"DACTOP_0.R1.r1:a_n1_flow" "I"
"DACTOP_0.R1.r1:a_n1_probe" "V"
"DACTOP_0.R2.1" "V"
"DACTOP_0.R2.r1:a_a_probe" "V"
"DACTOP_0.R2.r1:a_a_probe_flow" "I"
"DACTOP_0.R2.r1:a_n1_flow" "I"
"DACTOP_0.R2.r1:a_n1_probe" "V"
"DACTOP_0.R3.1" "V"
"DACTOP_0.R3.r1:a_a_probe" "V"
"DACTOP_0.R3.r1:a_a_probe_flow" "I"
"DACTOP_0.R3.r1:a_n1_flow" "I"
"DACTOP_0.R3.r1:a_n1_probe" "V"
"DACTOP_0.R4.1" "V"
"DACTOP_0.R4.r1:a_a_probe" "V"
"DACTOP_0.R4.r1:a_a_probe_flow" "I"
"DACTOP_0.R4.r1:a_n1_flow" "I"
"DACTOP_0.R4.r1:a_n1_probe" "V"
"DACTOP_0.R5.1" "V"
"DACTOP_0.R5.r1:a_a_probe" "V"
"DACTOP_0.R5.r1:a_a_probe_flow" "I"
"DACTOP_0.R5.r1:a_n1_flow" "I"
"DACTOP_0.R5.r1:a_n1_probe" "V"
"DACTOP_0.R6.1" "V"
"DACTOP_0.R6.r1:a_a_probe" "V"
"DACTOP_0.R6.r1:a_a_probe_flow" "I"
"DACTOP_0.R6.r1:a_n1_flow" "I"
"DACTOP_0.R6.r1:a_n1_probe" "V"
"DACTOP_0.R7.1" "V"
"DACTOP_0.R7.r1:a_a_probe" "V"
"DACTOP_0.R7.r1:a_a_probe_flow" "I"
"DACTOP_0.R7.r1:a_n1_flow" "I"
"DACTOP_0.R7.r1:a_n1_probe" "V"
"DACTOP_0.R8.1" "V"
"DACTOP_0.R8.r1:a_a_probe" "V"
"DACTOP_0.R8.r1:a_a_probe_flow" "I"
"DACTOP_0.R8.r1:a_n1_flow" "I"
"DACTOP_0.R8.r1:a_n1_probe" "V"
"DACTOP_0.R9.1" "V"
"DACTOP_0.R9.r1:a_a_probe" "V"
"DACTOP_0.R9.r1:a_a_probe_flow" "I"
"DACTOP_0.R9.r1:a_n1_flow" "I"
"DACTOP_0.R9.r1:a_n1_probe" "V"
"DACTOP_0.R10.1" "V"
"DACTOP_0.R10.r1:a_a_probe" "V"
"DACTOP_0.R10.r1:a_a_probe_flow" "I"
"DACTOP_0.R10.r1:a_n1_flow" "I"
"DACTOP_0.R10.r1:a_n1_probe" "V"
"DACTOP_0.R11.1" "V"
"DACTOP_0.R11.r1:a_a_probe" "V"
"DACTOP_0.R11.r1:a_a_probe_flow" "I"
"DACTOP_0.R11.r1:a_n1_flow" "I"
"DACTOP_0.R11.r1:a_n1_probe" "V"
"DACTOP_0.RFILV01_0.Dummy_1_1.1" "V"
"DACTOP_0.RFILV01_0.Dummy_1_1.r1:a_a_probe" "V"
"DACTOP_0.RFILV01_0.Dummy_1_1.r1:a_a_probe_flow" "I"
"DACTOP_0.RFILV01_0.Dummy_1_1.r1:a_n1_flow" "I"
"DACTOP_0.RFILV01_0.Dummy_1_1.r1:a_n1_probe" "V"
"DACTOP_0.RFILV01_0.Dummy_1_2.1" "V"
"DACTOP_0.RFILV01_0.Dummy_1_2.r1:a_a_probe" "V"
"DACTOP_0.RFILV01_0.Dummy_1_2.r1:a_a_probe_flow" "I"
"DACTOP_0.RFILV01_0.Dummy_1_2.r1:a_n1_flow" "I"
"DACTOP_0.RFILV01_0.Dummy_1_2.r1:a_n1_probe" "V"
"DACTOP_0.RFILV01_0.Dymmy_2_1.1" "V"
"DACTOP_0.RFILV01_0.Dymmy_2_1.r1:a_a_probe" "V"
"DACTOP_0.RFILV01_0.Dymmy_2_1.r1:a_a_probe_flow" "I"
"DACTOP_0.RFILV01_0.Dymmy_2_1.r1:a_n1_flow" "I"
"DACTOP_0.RFILV01_0.Dymmy_2_1.r1:a_n1_probe" "V"
"DACTOP_0.RFILV01_0.Dymmy_2_2.1" "V"
"DACTOP_0.RFILV01_0.Dymmy_2_2.r1:a_a_probe" "V"
"DACTOP_0.RFILV01_0.Dymmy_2_2.r1:a_a_probe_flow" "I"
"DACTOP_0.RFILV01_0.Dymmy_2_2.r1:a_n1_flow" "I"
"DACTOP_0.RFILV01_0.Dymmy_2_2.r1:a_n1_probe" "V"
"DACTOP_0.RFILV01_0.Dymmy_2_3.1" "V"
"DACTOP_0.RFILV01_0.Dymmy_2_3.r1:a_a_probe" "V"
"DACTOP_0.RFILV01_0.Dymmy_2_3.r1:a_a_probe_flow" "I"
"DACTOP_0.RFILV01_0.Dymmy_2_3.r1:a_n1_flow" "I"
"DACTOP_0.RFILV01_0.Dymmy_2_3.r1:a_n1_probe" "V"
"DACTOP_0.RFILV01_0.Dymmy_2_4.1" "V"
"DACTOP_0.RFILV01_0.Dymmy_2_4.r1:a_a_probe" "V"
"DACTOP_0.RFILV01_0.Dymmy_2_4.r1:a_a_probe_flow" "I"
"DACTOP_0.RFILV01_0.Dymmy_2_4.r1:a_n1_flow" "I"
"DACTOP_0.RFILV01_0.Dymmy_2_4.r1:a_n1_probe" "V"
"DACTOP_0.RFILV01_0.Dymmy_2_5.1" "V"
"DACTOP_0.RFILV01_0.Dymmy_2_5.r1:a_a_probe" "V"
"DACTOP_0.RFILV01_0.Dymmy_2_5.r1:a_a_probe_flow" "I"
"DACTOP_0.RFILV01_0.Dymmy_2_5.r1:a_n1_flow" "I"
"DACTOP_0.RFILV01_0.Dymmy_2_5.r1:a_n1_probe" "V"
"DACTOP_0.RFILV01_0.Dymmy_2_6.1" "V"
"DACTOP_0.RFILV01_0.Dymmy_2_6.r1:a_a_probe" "V"
"DACTOP_0.RFILV01_0.Dymmy_2_6.r1:a_a_probe_flow" "I"
"DACTOP_0.RFILV01_0.Dymmy_2_6.r1:a_n1_flow" "I"
"DACTOP_0.RFILV01_0.Dymmy_2_6.r1:a_n1_probe" "V"
"DACTOP_0.RFILV01_0.Dymmy_2_7.1" "V"
"DACTOP_0.RFILV01_0.Dymmy_2_7.r1:a_a_probe" "V"
"DACTOP_0.RFILV01_0.Dymmy_2_7.r1:a_a_probe_flow" "I"
"DACTOP_0.RFILV01_0.Dymmy_2_7.r1:a_n1_flow" "I"
"DACTOP_0.RFILV01_0.Dymmy_2_7.r1:a_n1_probe" "V"
"DACTOP_0.RFILV01_0.ENact" "V"
"DACTOP_0.RFILV01_0.ENnot" "V"
"DACTOP_0.RFILV01_0.net143" "V"
"DACTOP_0.RFILV01_0.net0144" "V"
"DACTOP_0.RFILV01_0.net145" "V"
"DACTOP_0.RFILV01_0.net0151" "V"
"DACTOP_0.RFILV01_0.net0153" "V"
"DACTOP_0.RFILV01_0.net0160" "V"
"DACTOP_0.RFILV01_0.net0166" "V"
"DACTOP_0.RFILV01_0.net0172" "V"
"DACTOP_0.RFILV01_0.net189" "V"
"DACTOP_0.RFILV01_0.net212" "V"
"DACTOP_0.RFILV01_0.net0217" "V"
"DACTOP_0.RFILV01_0.net0224" "V"
"DACTOP_0.RFILV01_0.net248" "V"
"DACTOP_0.RFILV01_0.net254" "V"
"DACTOP_0.RFILV01_0.net274" "V"
"DACTOP_0.RFILV01_0.net284" "V"
"DACTOP_0.RFILV01_0.net288" "V"
"DACTOP_0.RFILV01_0.net289" "V"
"DACTOP_0.RFILV01_0.net292" "V"
"DACTOP_0.RFILV01_0.net296" "V"
"DACTOP_0.RFILV01_0.net297" "V"
"DACTOP_0.RFILV01_0.net298" "V"
"DACTOP_0.RFILV01_0.net299" "V"
"DACTOP_0.RFILV01_0.net304" "V"
"DACTOP_0.RFILV01_0.net308" "V"
"DACTOP_0.RFILV01_0.net0309" "V"
"DACTOP_0.RFILV01_0.net309" "V"
"DACTOP_0.RFILV01_0.net311" "V"
"DACTOP_0.RFILV01_0.net312" "V"
"DACTOP_0.RFILV01_0.net314" "V"
"DACTOP_0.RFILV01_0.net315" "V"
"DACTOP_0.RFILV01_0.net316" "V"
"DACTOP_0.RFILV01_0.net319" "V"
"DACTOP_0.RFILV01_0.net320" "V"
"DACTOP_0.RFILV01_0.net325" "V"
"DACTOP_0.RFILV01_0.net326" "V"
"DACTOP_0.RFILV01_0.net327" "V"
"DACTOP_0.RFILV01_0.net328" "V"
"DACTOP_0.RFILV01_0.net331" "V"
"DACTOP_0.RFILV01_0.net332" "V"
"DACTOP_0.RFILV01_0.net341" "V"
"DACTOP_0.RFILV01_0.net344" "V"
"DACTOP_0.RFILV01_0.net345" "V"
"DACTOP_0.RFILV01_0.net347" "V"
"DACTOP_0.RFILV01_0.net361" "V"
"DACTOP_0.RFILV01_0.net366" "V"
"DACTOP_0.RFILV01_0.net372" "V"
"DACTOP_0.RFILV01_0.net0375" "V"
"DACTOP_0.RFILV01_0.net377" "V"
"DACTOP_0.RFILV01_0.net379" "V"
"DACTOP_0.RFILV01_0.net384" "V"
"DACTOP_0.RFILV01_0.net419" "V"
"DACTOP_0.RFILV01_0.net420" "V"
"DACTOP_0.RFILV01_0.net421" "V"
"DACTOP_0.RFILV01_0.net423" "V"
"DACTOP_0.RFILV01_0.net424" "V"
"DACTOP_0.RFILV01_0.net425" "V"
"DACTOP_0.RFILV01_0.net427" "V"
"DACTOP_0.RFILV01_0.net428" "V"
"DACTOP_0.RFILV01_0.net432" "V"
"DACTOP_0.RFILV01_0.net434" "V"
"DACTOP_0.RFILV01_0.net436" "V"
"DACTOP_0.RFILV01_0.net437" "V"
"DACTOP_0.RFILV01_0.net438" "V"
"DACTOP_0.RFILV01_0.net440" "V"
"DACTOP_0.RFILV01_0.net443" "V"
"DACTOP_0.RFILV01_0.net444" "V"
"DACTOP_0.RFILV01_0.net445" "V"
"DACTOP_0.RFILV01_0.net446" "V"
"DACTOP_0.RFILV01_0.net450" "V"
"DACTOP_0.RFILV01_0.net454" "V"
"DACTOP_0.RFILV01_0.net458" "V"
"DACTOP_0.RFILV01_0.net462" "V"
"DACTOP_0.RFILV01_0.net465" "V"
"DACTOP_0.RFILV01_0.net466" "V"
"DACTOP_0.RFILV01_0.net467" "V"
"DACTOP_0.RFILV01_0.net468" "V"
"DACTOP_0.RFILV01_0.net470" "V"
"DACTOP_0.RFILV01_0.net472" "V"
"DACTOP_0.RFILV01_0.net475" "V"
"DACTOP_0.RFILV01_0.net476" "V"
"DACTOP_0.RFILV01_0.net478" "V"
"DACTOP_0.RFILV01_0.net479" "V"
"DACTOP_0.RFILV01_0.net480" "V"
"DACTOP_0.RFILV01_0.net0483" "V"
"DACTOP_0.RFILV01_0.net483" "V"
"DACTOP_0.RFILV01_0.net0506" "V"
"DACTOP_0.RFILV01_0.net0546" "V"
"DACTOP_0.RFILV01_0.net0553" "V"
"DACTOP_0.RFILV01_0.net0572" "V"
"DACTOP_0.RFILV01_0.R0.1" "V"
"DACTOP_0.RFILV01_0.R0.r1:a_a_probe" "V"
"DACTOP_0.RFILV01_0.R0.r1:a_a_probe_flow" "I"
"DACTOP_0.RFILV01_0.R0.r1:a_n1_flow" "I"
"DACTOP_0.RFILV01_0.R0.r1:a_n1_probe" "V"
"DACTOP_0.RFILV01_0.R1.1" "V"
"DACTOP_0.RFILV01_0.R1.r1:a_a_probe" "V"
"DACTOP_0.RFILV01_0.R1.r1:a_a_probe_flow" "I"
"DACTOP_0.RFILV01_0.R1.r1:a_n1_flow" "I"
"DACTOP_0.RFILV01_0.R1.r1:a_n1_probe" "V"
"DACTOP_0.RFILV01_0.R2.1" "V"
"DACTOP_0.RFILV01_0.R2.r1:a_a_probe" "V"
"DACTOP_0.RFILV01_0.R2.r1:a_a_probe_flow" "I"
"DACTOP_0.RFILV01_0.R2.r1:a_n1_flow" "I"
"DACTOP_0.RFILV01_0.R2.r1:a_n1_probe" "V"
"DACTOP_0.RFILV01_0.R3.1" "V"
"DACTOP_0.RFILV01_0.R3.r1:a_a_probe" "V"
"DACTOP_0.RFILV01_0.R3.r1:a_a_probe_flow" "I"
"DACTOP_0.RFILV01_0.R3.r1:a_n1_flow" "I"
"DACTOP_0.RFILV01_0.R3.r1:a_n1_probe" "V"
"DACTOP_0.RFILV01_0.R4.1" "V"
"DACTOP_0.RFILV01_0.R4.r1:a_a_probe" "V"
"DACTOP_0.RFILV01_0.R4.r1:a_a_probe_flow" "I"
"DACTOP_0.RFILV01_0.R4.r1:a_n1_flow" "I"
"DACTOP_0.RFILV01_0.R4.r1:a_n1_probe" "V"
"DACTOP_0.RFILV01_0.R5.1" "V"
"DACTOP_0.RFILV01_0.R5.r1:a_a_probe" "V"
"DACTOP_0.RFILV01_0.R5.r1:a_a_probe_flow" "I"
"DACTOP_0.RFILV01_0.R5.r1:a_n1_flow" "I"
"DACTOP_0.RFILV01_0.R5.r1:a_n1_probe" "V"
"DACTOP_0.RFILV01_0.R6.1" "V"
"DACTOP_0.RFILV01_0.R6.r1:a_a_probe" "V"
"DACTOP_0.RFILV01_0.R6.r1:a_a_probe_flow" "I"
"DACTOP_0.RFILV01_0.R6.r1:a_n1_flow" "I"
"DACTOP_0.RFILV01_0.R6.r1:a_n1_probe" "V"
"DACTOP_0.RFILV01_0.R7.1" "V"
"DACTOP_0.RFILV01_0.R7.r1:a_a_probe" "V"
"DACTOP_0.RFILV01_0.R7.r1:a_a_probe_flow" "I"
"DACTOP_0.RFILV01_0.R7.r1:a_n1_flow" "I"
"DACTOP_0.RFILV01_0.R7.r1:a_n1_probe" "V"
"DACTOP_0.RFILV01_0.R8.1" "V"
"DACTOP_0.RFILV01_0.R8.r1:a_a_probe" "V"
"DACTOP_0.RFILV01_0.R8.r1:a_a_probe_flow" "I"
"DACTOP_0.RFILV01_0.R8.r1:a_n1_flow" "I"
"DACTOP_0.RFILV01_0.R8.r1:a_n1_probe" "V"
"DACTOP_0.RFILV01_0.R9.1" "V"
"DACTOP_0.RFILV01_0.R9.r1:a_a_probe" "V"
"DACTOP_0.RFILV01_0.R9.r1:a_a_probe_flow" "I"
"DACTOP_0.RFILV01_0.R9.r1:a_n1_flow" "I"
"DACTOP_0.RFILV01_0.R9.r1:a_n1_probe" "V"
"DACTOP_0.RFILV01_0.R10.1" "V"
"DACTOP_0.RFILV01_0.R10.r1:a_a_probe" "V"
"DACTOP_0.RFILV01_0.R10.r1:a_a_probe_flow" "I"
"DACTOP_0.RFILV01_0.R10.r1:a_n1_flow" "I"
"DACTOP_0.RFILV01_0.R10.r1:a_n1_probe" "V"
"DACTOP_0.RFILV01_0.R11.1" "V"
"DACTOP_0.RFILV01_0.R11.r1:a_a_probe" "V"
"DACTOP_0.RFILV01_0.R11.r1:a_a_probe_flow" "I"
"DACTOP_0.RFILV01_0.R11.r1:a_n1_flow" "I"
"DACTOP_0.RFILV01_0.R11.r1:a_n1_probe" "V"
"DACTOP_0.RFILV01_0.R12.1" "V"
"DACTOP_0.RFILV01_0.R12.r1:a_a_probe" "V"
"DACTOP_0.RFILV01_0.R12.r1:a_a_probe_flow" "I"
"DACTOP_0.RFILV01_0.R12.r1:a_n1_flow" "I"
"DACTOP_0.RFILV01_0.R12.r1:a_n1_probe" "V"
"DACTOP_0.RFILV01_0.R13.1" "V"
"DACTOP_0.RFILV01_0.R13.r1:a_a_probe" "V"
"DACTOP_0.RFILV01_0.R13.r1:a_a_probe_flow" "I"
"DACTOP_0.RFILV01_0.R13.r1:a_n1_flow" "I"
"DACTOP_0.RFILV01_0.R13.r1:a_n1_probe" "V"
"DACTOP_0.RFILV01_0.R16.1" "V"
"DACTOP_0.RFILV01_0.R16.r1:a_a_probe" "V"
"DACTOP_0.RFILV01_0.R16.r1:a_a_probe_flow" "I"
"DACTOP_0.RFILV01_0.R16.r1:a_n1_flow" "I"
"DACTOP_0.RFILV01_0.R16.r1:a_n1_probe" "V"
"DACTOP_0.RFILV01_0.R17.1" "V"
"DACTOP_0.RFILV01_0.R17.r1:a_a_probe" "V"
"DACTOP_0.RFILV01_0.R17.r1:a_a_probe_flow" "I"
"DACTOP_0.RFILV01_0.R17.r1:a_n1_flow" "I"
"DACTOP_0.RFILV01_0.R17.r1:a_n1_probe" "V"
"DACTOP_0.RFILV01_0.R18.1" "V"
"DACTOP_0.RFILV01_0.R18.r1:a_a_probe" "V"
"DACTOP_0.RFILV01_0.R18.r1:a_a_probe_flow" "I"
"DACTOP_0.RFILV01_0.R18.r1:a_n1_flow" "I"
"DACTOP_0.RFILV01_0.R18.r1:a_n1_probe" "V"
"DACTOP_0.RFILV01_0.R21.1" "V"
"DACTOP_0.RFILV01_0.R21.r1:a_a_probe" "V"
"DACTOP_0.RFILV01_0.R21.r1:a_a_probe_flow" "I"
"DACTOP_0.RFILV01_0.R21.r1:a_n1_flow" "I"
"DACTOP_0.RFILV01_0.R21.r1:a_n1_probe" "V"
"DACTOP_0.RFILV01_0.R23.1" "V"
"DACTOP_0.RFILV01_0.R23.r1:a_a_probe" "V"
"DACTOP_0.RFILV01_0.R23.r1:a_a_probe_flow" "I"
"DACTOP_0.RFILV01_0.R23.r1:a_n1_flow" "I"
"DACTOP_0.RFILV01_0.R23.r1:a_n1_probe" "V"
"DACTOP_0.RFILV01_0.R24.1" "V"
"DACTOP_0.RFILV01_0.R24.r1:a_a_probe" "V"
"DACTOP_0.RFILV01_0.R24.r1:a_a_probe_flow" "I"
"DACTOP_0.RFILV01_0.R24.r1:a_n1_flow" "I"
"DACTOP_0.RFILV01_0.R24.r1:a_n1_probe" "V"
"DACTOP_0.RFILV01_0.R25.1" "V"
"DACTOP_0.RFILV01_0.R25.r1:a_a_probe" "V"
"DACTOP_0.RFILV01_0.R25.r1:a_a_probe_flow" "I"
"DACTOP_0.RFILV01_0.R25.r1:a_n1_flow" "I"
"DACTOP_0.RFILV01_0.R25.r1:a_n1_probe" "V"
"DACTOP_0.RFILV01_0.R26.1" "V"
"DACTOP_0.RFILV01_0.R26.r1:a_a_probe" "V"
"DACTOP_0.RFILV01_0.R26.r1:a_a_probe_flow" "I"
"DACTOP_0.RFILV01_0.R26.r1:a_n1_flow" "I"
"DACTOP_0.RFILV01_0.R26.r1:a_n1_probe" "V"
"DACTOP_0.RFILV01_0.R27.1" "V"
"DACTOP_0.RFILV01_0.R27.r1:a_a_probe" "V"
"DACTOP_0.RFILV01_0.R27.r1:a_a_probe_flow" "I"
"DACTOP_0.RFILV01_0.R27.r1:a_n1_flow" "I"
"DACTOP_0.RFILV01_0.R27.r1:a_n1_probe" "V"
"DACTOP_0.RFILV01_0.R28.1" "V"
"DACTOP_0.RFILV01_0.R28.r1:a_a_probe" "V"
"DACTOP_0.RFILV01_0.R28.r1:a_a_probe_flow" "I"
"DACTOP_0.RFILV01_0.R28.r1:a_n1_flow" "I"
"DACTOP_0.RFILV01_0.R28.r1:a_n1_probe" "V"
"DACTOP_0.RFILV01_0.R29.1" "V"
"DACTOP_0.RFILV01_0.R29.r1:a_a_probe" "V"
"DACTOP_0.RFILV01_0.R29.r1:a_a_probe_flow" "I"
"DACTOP_0.RFILV01_0.R29.r1:a_n1_flow" "I"
"DACTOP_0.RFILV01_0.R29.r1:a_n1_probe" "V"
"DACTOP_0.RFILV01_0.R30.1" "V"
"DACTOP_0.RFILV01_0.R30.r1:a_a_probe" "V"
"DACTOP_0.RFILV01_0.R30.r1:a_a_probe_flow" "I"
"DACTOP_0.RFILV01_0.R30.r1:a_n1_flow" "I"
"DACTOP_0.RFILV01_0.R30.r1:a_n1_probe" "V"
"DACTOP_0.RFILV01_0.R145.1" "V"
"DACTOP_0.RFILV01_0.R145.r1:a_a_probe" "V"
"DACTOP_0.RFILV01_0.R145.r1:a_a_probe_flow" "I"
"DACTOP_0.RFILV01_0.R145.r1:a_n1_flow" "I"
"DACTOP_0.RFILV01_0.R145.r1:a_n1_probe" "V"
"DACTOP_0.RFILV01_0.R146.1" "V"
"DACTOP_0.RFILV01_0.R146.r1:a_a_probe" "V"
"DACTOP_0.RFILV01_0.R146.r1:a_a_probe_flow" "I"
"DACTOP_0.RFILV01_0.R146.r1:a_n1_flow" "I"
"DACTOP_0.RFILV01_0.R146.r1:a_n1_probe" "V"
"DACTOP_0.RFILV01_0.R147.1" "V"
"DACTOP_0.RFILV01_0.R147.r1:a_a_probe" "V"
"DACTOP_0.RFILV01_0.R147.r1:a_a_probe_flow" "I"
"DACTOP_0.RFILV01_0.R147.r1:a_n1_flow" "I"
"DACTOP_0.RFILV01_0.R147.r1:a_n1_probe" "V"
"DACTOP_0.RFILV01_0.R148.1" "V"
"DACTOP_0.RFILV01_0.R148.r1:a_a_probe" "V"
"DACTOP_0.RFILV01_0.R148.r1:a_a_probe_flow" "I"
"DACTOP_0.RFILV01_0.R148.r1:a_n1_flow" "I"
"DACTOP_0.RFILV01_0.R148.r1:a_n1_probe" "V"
"DACTOP_0.RFILV01_0.R149.1" "V"
"DACTOP_0.RFILV01_0.R149.r1:a_a_probe" "V"
"DACTOP_0.RFILV01_0.R149.r1:a_a_probe_flow" "I"
"DACTOP_0.RFILV01_0.R149.r1:a_n1_flow" "I"
"DACTOP_0.RFILV01_0.R149.r1:a_n1_probe" "V"
"DACTOP_0.RFILV01_0.R150.1" "V"
"DACTOP_0.RFILV01_0.R150.r1:a_a_probe" "V"
"DACTOP_0.RFILV01_0.R150.r1:a_a_probe_flow" "I"
"DACTOP_0.RFILV01_0.R150.r1:a_n1_flow" "I"
"DACTOP_0.RFILV01_0.R150.r1:a_n1_probe" "V"
"DACTOP_0.RFILV01_0.R151.1" "V"
"DACTOP_0.RFILV01_0.R151.r1:a_a_probe" "V"
"DACTOP_0.RFILV01_0.R151.r1:a_a_probe_flow" "I"
"DACTOP_0.RFILV01_0.R151.r1:a_n1_flow" "I"
"DACTOP_0.RFILV01_0.R151.r1:a_n1_probe" "V"
"DACTOP_0.RFILV01_0.R152.1" "V"
"DACTOP_0.RFILV01_0.R152.r1:a_a_probe" "V"
"DACTOP_0.RFILV01_0.R152.r1:a_a_probe_flow" "I"
"DACTOP_0.RFILV01_0.R152.r1:a_n1_flow" "I"
"DACTOP_0.RFILV01_0.R152.r1:a_n1_probe" "V"
"DACTOP_0.RFILV01_0.R153.1" "V"
"DACTOP_0.RFILV01_0.R153.r1:a_a_probe" "V"
"DACTOP_0.RFILV01_0.R153.r1:a_a_probe_flow" "I"
"DACTOP_0.RFILV01_0.R153.r1:a_n1_flow" "I"
"DACTOP_0.RFILV01_0.R153.r1:a_n1_probe" "V"
"DACTOP_0.RFILV01_0.R154.1" "V"
"DACTOP_0.RFILV01_0.R154.r1:a_a_probe" "V"
"DACTOP_0.RFILV01_0.R154.r1:a_a_probe_flow" "I"
"DACTOP_0.RFILV01_0.R154.r1:a_n1_flow" "I"
"DACTOP_0.RFILV01_0.R154.r1:a_n1_probe" "V"
"DACTOP_0.RFILV01_0.R155.1" "V"
"DACTOP_0.RFILV01_0.R155.r1:a_a_probe" "V"
"DACTOP_0.RFILV01_0.R155.r1:a_a_probe_flow" "I"
"DACTOP_0.RFILV01_0.R155.r1:a_n1_flow" "I"
"DACTOP_0.RFILV01_0.R155.r1:a_n1_probe" "V"
"DACTOP_0.RFILV01_0.R156.1" "V"
"DACTOP_0.RFILV01_0.R156.r1:a_a_probe" "V"
"DACTOP_0.RFILV01_0.R156.r1:a_a_probe_flow" "I"
"DACTOP_0.RFILV01_0.R156.r1:a_n1_flow" "I"
"DACTOP_0.RFILV01_0.R156.r1:a_n1_probe" "V"
"DACTOP_0.RFILV01_0.R157.1" "V"
"DACTOP_0.RFILV01_0.R157.r1:a_a_probe" "V"
"DACTOP_0.RFILV01_0.R157.r1:a_a_probe_flow" "I"
"DACTOP_0.RFILV01_0.R157.r1:a_n1_flow" "I"
"DACTOP_0.RFILV01_0.R157.r1:a_n1_probe" "V"
"DACTOP_0.RFILV01_0.R158.1" "V"
"DACTOP_0.RFILV01_0.R158.r1:a_a_probe" "V"
"DACTOP_0.RFILV01_0.R158.r1:a_a_probe_flow" "I"
"DACTOP_0.RFILV01_0.R158.r1:a_n1_flow" "I"
"DACTOP_0.RFILV01_0.R158.r1:a_n1_probe" "V"
"DACTOP_0.RFILV01_0.R159.1" "V"
"DACTOP_0.RFILV01_0.R159.r1:a_a_probe" "V"
"DACTOP_0.RFILV01_0.R159.r1:a_a_probe_flow" "I"
"DACTOP_0.RFILV01_0.R159.r1:a_n1_flow" "I"
"DACTOP_0.RFILV01_0.R159.r1:a_n1_probe" "V"
"DACTOP_0.RFILV01_0.R160.1" "V"
"DACTOP_0.RFILV01_0.R160.r1:a_a_probe" "V"
"DACTOP_0.RFILV01_0.R160.r1:a_a_probe_flow" "I"
"DACTOP_0.RFILV01_0.R160.r1:a_n1_flow" "I"
"DACTOP_0.RFILV01_0.R160.r1:a_n1_probe" "V"
"DACTOP_0.RFILV01_0.R161.1" "V"
"DACTOP_0.RFILV01_0.R161.r1:a_a_probe" "V"
"DACTOP_0.RFILV01_0.R161.r1:a_a_probe_flow" "I"
"DACTOP_0.RFILV01_0.R161.r1:a_n1_flow" "I"
"DACTOP_0.RFILV01_0.R161.r1:a_n1_probe" "V"
"DACTOP_0.RFILV01_0.R162.1" "V"
"DACTOP_0.RFILV01_0.R162.r1:a_a_probe" "V"
"DACTOP_0.RFILV01_0.R162.r1:a_a_probe_flow" "I"
"DACTOP_0.RFILV01_0.R162.r1:a_n1_flow" "I"
"DACTOP_0.RFILV01_0.R162.r1:a_n1_probe" "V"
"DACTOP_0.RFILV01_0.R163.1" "V"
"DACTOP_0.RFILV01_0.R163.r1:a_a_probe" "V"
"DACTOP_0.RFILV01_0.R163.r1:a_a_probe_flow" "I"
"DACTOP_0.RFILV01_0.R163.r1:a_n1_flow" "I"
"DACTOP_0.RFILV01_0.R163.r1:a_n1_probe" "V"
"DACTOP_0.RFILV01_0.R164.1" "V"
"DACTOP_0.RFILV01_0.R164.r1:a_a_probe" "V"
"DACTOP_0.RFILV01_0.R164.r1:a_a_probe_flow" "I"
"DACTOP_0.RFILV01_0.R164.r1:a_n1_flow" "I"
"DACTOP_0.RFILV01_0.R164.r1:a_n1_probe" "V"
"DACTOP_0.RFILV01_0.R165_1.1" "V"
"DACTOP_0.RFILV01_0.R165_1.r1:a_a_probe" "V"
"DACTOP_0.RFILV01_0.R165_1.r1:a_a_probe_flow" "I"
"DACTOP_0.RFILV01_0.R165_1.r1:a_n1_flow" "I"
"DACTOP_0.RFILV01_0.R165_1.r1:a_n1_probe" "V"
"DACTOP_0.RFILV01_0.R165_2.1" "V"
"DACTOP_0.RFILV01_0.R165_2.r1:a_a_probe" "V"
"DACTOP_0.RFILV01_0.R165_2.r1:a_a_probe_flow" "I"
"DACTOP_0.RFILV01_0.R165_2.r1:a_n1_flow" "I"
"DACTOP_0.RFILV01_0.R165_2.r1:a_n1_probe" "V"
"DACTOP_0.RFILV01_0.R173.1" "V"
"DACTOP_0.RFILV01_0.R173.r1:a_a_probe" "V"
"DACTOP_0.RFILV01_0.R173.r1:a_a_probe_flow" "I"
"DACTOP_0.RFILV01_0.R173.r1:a_n1_flow" "I"
"DACTOP_0.RFILV01_0.R173.r1:a_n1_probe" "V"
"DACTOP_0.RFILV01_0.R174.1" "V"
"DACTOP_0.RFILV01_0.R174.r1:a_a_probe" "V"
"DACTOP_0.RFILV01_0.R174.r1:a_a_probe_flow" "I"
"DACTOP_0.RFILV01_0.R174.r1:a_n1_flow" "I"
"DACTOP_0.RFILV01_0.R174.r1:a_n1_probe" "V"
"DACTOP_0.RFILV01_0.R175.1" "V"
"DACTOP_0.RFILV01_0.R175.r1:a_a_probe" "V"
"DACTOP_0.RFILV01_0.R175.r1:a_a_probe_flow" "I"
"DACTOP_0.RFILV01_0.R175.r1:a_n1_flow" "I"
"DACTOP_0.RFILV01_0.R175.r1:a_n1_probe" "V"
"DACTOP_0.RFILV01_0.R176.1" "V"
"DACTOP_0.RFILV01_0.R176.r1:a_a_probe" "V"
"DACTOP_0.RFILV01_0.R176.r1:a_a_probe_flow" "I"
"DACTOP_0.RFILV01_0.R176.r1:a_n1_flow" "I"
"DACTOP_0.RFILV01_0.R176.r1:a_n1_probe" "V"
"DACTOP_0.RFILV01_0.R177.1" "V"
"DACTOP_0.RFILV01_0.R177.r1:a_a_probe" "V"
"DACTOP_0.RFILV01_0.R177.r1:a_a_probe_flow" "I"
"DACTOP_0.RFILV01_0.R177.r1:a_n1_flow" "I"
"DACTOP_0.RFILV01_0.R177.r1:a_n1_probe" "V"
"DACTOP_0.RFILV01_0.R184.1" "V"
"DACTOP_0.RFILV01_0.R184.r1:a_a_probe" "V"
"DACTOP_0.RFILV01_0.R184.r1:a_a_probe_flow" "I"
"DACTOP_0.RFILV01_0.R184.r1:a_n1_flow" "I"
"DACTOP_0.RFILV01_0.R184.r1:a_n1_probe" "V"
"DACTOP_0.RFILV01_0.R185.1" "V"
"DACTOP_0.RFILV01_0.R185.r1:a_a_probe" "V"
"DACTOP_0.RFILV01_0.R185.r1:a_a_probe_flow" "I"
"DACTOP_0.RFILV01_0.R185.r1:a_n1_flow" "I"
"DACTOP_0.RFILV01_0.R185.r1:a_n1_probe" "V"
"DACTOP_0.RFILV01_0.R186.1" "V"
"DACTOP_0.RFILV01_0.R186.r1:a_a_probe" "V"
"DACTOP_0.RFILV01_0.R186.r1:a_a_probe_flow" "I"
"DACTOP_0.RFILV01_0.R186.r1:a_n1_flow" "I"
"DACTOP_0.RFILV01_0.R186.r1:a_n1_probe" "V"
"DACTOP_0.RFILV01_0.R187.1" "V"
"DACTOP_0.RFILV01_0.R187.r1:a_a_probe" "V"
"DACTOP_0.RFILV01_0.R187.r1:a_a_probe_flow" "I"
"DACTOP_0.RFILV01_0.R187.r1:a_n1_flow" "I"
"DACTOP_0.RFILV01_0.R187.r1:a_n1_probe" "V"
"DACTOP_0.RFILV01_0.R188.1" "V"
"DACTOP_0.RFILV01_0.R188.r1:a_a_probe" "V"
"DACTOP_0.RFILV01_0.R188.r1:a_a_probe_flow" "I"
"DACTOP_0.RFILV01_0.R188.r1:a_n1_flow" "I"
"DACTOP_0.RFILV01_0.R188.r1:a_n1_probe" "V"
"DACTOP_0.RFILV01_0.R189.1" "V"
"DACTOP_0.RFILV01_0.R189.r1:a_a_probe" "V"
"DACTOP_0.RFILV01_0.R189.r1:a_a_probe_flow" "I"
"DACTOP_0.RFILV01_0.R189.r1:a_n1_flow" "I"
"DACTOP_0.RFILV01_0.R189.r1:a_n1_probe" "V"
"DACTOP_0.RFILV01_0.R190.1" "V"
"DACTOP_0.RFILV01_0.R190.r1:a_a_probe" "V"
"DACTOP_0.RFILV01_0.R190.r1:a_a_probe_flow" "I"
"DACTOP_0.RFILV01_0.R190.r1:a_n1_flow" "I"
"DACTOP_0.RFILV01_0.R190.r1:a_n1_probe" "V"
"DACTOP_0.RFILV01_0.R191.1" "V"
"DACTOP_0.RFILV01_0.R191.r1:a_a_probe" "V"
"DACTOP_0.RFILV01_0.R191.r1:a_a_probe_flow" "I"
"DACTOP_0.RFILV01_0.R191.r1:a_n1_flow" "I"
"DACTOP_0.RFILV01_0.R191.r1:a_n1_probe" "V"
"DACTOP_0.RFILV01_0.R192.1" "V"
"DACTOP_0.RFILV01_0.R192.r1:a_a_probe" "V"
"DACTOP_0.RFILV01_0.R192.r1:a_a_probe_flow" "I"
"DACTOP_0.RFILV01_0.R192.r1:a_n1_flow" "I"
"DACTOP_0.RFILV01_0.R192.r1:a_n1_probe" "V"
"DACTOP_0.RFILV01_0.R193.1" "V"
"DACTOP_0.RFILV01_0.R193.r1:a_a_probe" "V"
"DACTOP_0.RFILV01_0.R193.r1:a_a_probe_flow" "I"
"DACTOP_0.RFILV01_0.R193.r1:a_n1_flow" "I"
"DACTOP_0.RFILV01_0.R193.r1:a_n1_probe" "V"
"DACTOP_0.RFILV01_0.R205.1" "V"
"DACTOP_0.RFILV01_0.R205.r1:a_a_probe" "V"
"DACTOP_0.RFILV01_0.R205.r1:a_a_probe_flow" "I"
"DACTOP_0.RFILV01_0.R205.r1:a_n1_flow" "I"
"DACTOP_0.RFILV01_0.R205.r1:a_n1_probe" "V"
"DACTOP_0.RFILV01_0.R206.1" "V"
"DACTOP_0.RFILV01_0.R206.r1:a_a_probe" "V"
"DACTOP_0.RFILV01_0.R206.r1:a_a_probe_flow" "I"
"DACTOP_0.RFILV01_0.R206.r1:a_n1_flow" "I"
"DACTOP_0.RFILV01_0.R206.r1:a_n1_probe" "V"
"DACTOP_0.RFILV01_0.R207.1" "V"
"DACTOP_0.RFILV01_0.R207.r1:a_a_probe" "V"
"DACTOP_0.RFILV01_0.R207.r1:a_a_probe_flow" "I"
"DACTOP_0.RFILV01_0.R207.r1:a_n1_flow" "I"
"DACTOP_0.RFILV01_0.R207.r1:a_n1_probe" "V"
"DACTOP_0.RFILV01_0.R209.1" "V"
"DACTOP_0.RFILV01_0.R209.r1:a_a_probe" "V"
"DACTOP_0.RFILV01_0.R209.r1:a_a_probe_flow" "I"
"DACTOP_0.RFILV01_0.R209.r1:a_n1_flow" "I"
"DACTOP_0.RFILV01_0.R209.r1:a_n1_probe" "V"
"DACTOP_0.RFILV01_0.R210.1" "V"
"DACTOP_0.RFILV01_0.R210.r1:a_a_probe" "V"
"DACTOP_0.RFILV01_0.R210.r1:a_a_probe_flow" "I"
"DACTOP_0.RFILV01_0.R210.r1:a_n1_flow" "I"
"DACTOP_0.RFILV01_0.R210.r1:a_n1_probe" "V"
"DACTOP_0.RFILV01_0.R211.1" "V"
"DACTOP_0.RFILV01_0.R211.r1:a_a_probe" "V"
"DACTOP_0.RFILV01_0.R211.r1:a_a_probe_flow" "I"
"DACTOP_0.RFILV01_0.R211.r1:a_n1_flow" "I"
"DACTOP_0.RFILV01_0.R211.r1:a_n1_probe" "V"
"DACTOP_0.RFILV01_0.R212.1" "V"
"DACTOP_0.RFILV01_0.R212.r1:a_a_probe" "V"
"DACTOP_0.RFILV01_0.R212.r1:a_a_probe_flow" "I"
"DACTOP_0.RFILV01_0.R212.r1:a_n1_flow" "I"
"DACTOP_0.RFILV01_0.R212.r1:a_n1_probe" "V"
"DACTOP_0.RFILV01_0.R213.1" "V"
"DACTOP_0.RFILV01_0.R213.r1:a_a_probe" "V"
"DACTOP_0.RFILV01_0.R213.r1:a_a_probe_flow" "I"
"DACTOP_0.RFILV01_0.R213.r1:a_n1_flow" "I"
"DACTOP_0.RFILV01_0.R213.r1:a_n1_probe" "V"
"DACTOP_0.RFILV01_0.R214.1" "V"
"DACTOP_0.RFILV01_0.R214.r1:a_a_probe" "V"
"DACTOP_0.RFILV01_0.R214.r1:a_a_probe_flow" "I"
"DACTOP_0.RFILV01_0.R214.r1:a_n1_flow" "I"
"DACTOP_0.RFILV01_0.R214.r1:a_n1_probe" "V"
"DACTOP_0.RFILV01_0.R215.1" "V"
"DACTOP_0.RFILV01_0.R215.r1:a_a_probe" "V"
"DACTOP_0.RFILV01_0.R215.r1:a_a_probe_flow" "I"
"DACTOP_0.RFILV01_0.R215.r1:a_n1_flow" "I"
"DACTOP_0.RFILV01_0.R215.r1:a_n1_probe" "V"
"DACTOP_0.RFILV01_0.R216.1" "V"
"DACTOP_0.RFILV01_0.R216.r1:a_a_probe" "V"
"DACTOP_0.RFILV01_0.R216.r1:a_a_probe_flow" "I"
"DACTOP_0.RFILV01_0.R216.r1:a_n1_flow" "I"
"DACTOP_0.RFILV01_0.R216.r1:a_n1_probe" "V"
"DACTOP_0.RFILV01_0.R217.1" "V"
"DACTOP_0.RFILV01_0.R217.r1:a_a_probe" "V"
"DACTOP_0.RFILV01_0.R217.r1:a_a_probe_flow" "I"
"DACTOP_0.RFILV01_0.R217.r1:a_n1_flow" "I"
"DACTOP_0.RFILV01_0.R217.r1:a_n1_probe" "V"
"DACTOP_0.RFILV01_0.R218.1" "V"
"DACTOP_0.RFILV01_0.R218.r1:a_a_probe" "V"
"DACTOP_0.RFILV01_0.R218.r1:a_a_probe_flow" "I"
"DACTOP_0.RFILV01_0.R218.r1:a_n1_flow" "I"
"DACTOP_0.RFILV01_0.R218.r1:a_n1_probe" "V"
"DACTOP_0.RFILV01_0.R219.1" "V"
"DACTOP_0.RFILV01_0.R219.r1:a_a_probe" "V"
"DACTOP_0.RFILV01_0.R219.r1:a_a_probe_flow" "I"
"DACTOP_0.RFILV01_0.R219.r1:a_n1_flow" "I"
"DACTOP_0.RFILV01_0.R219.r1:a_n1_probe" "V"
"DACTOP_0.RFILV01_0.R238.1" "V"
"DACTOP_0.RFILV01_0.R238.r1:a_a_probe" "V"
"DACTOP_0.RFILV01_0.R238.r1:a_a_probe_flow" "I"
"DACTOP_0.RFILV01_0.R238.r1:a_n1_flow" "I"
"DACTOP_0.RFILV01_0.R238.r1:a_n1_probe" "V"
"DACTOP_0.RFILV01_0.R239.1" "V"
"DACTOP_0.RFILV01_0.R239.r1:a_a_probe" "V"
"DACTOP_0.RFILV01_0.R239.r1:a_a_probe_flow" "I"
"DACTOP_0.RFILV01_0.R239.r1:a_n1_flow" "I"
"DACTOP_0.RFILV01_0.R239.r1:a_n1_probe" "V"
"DACTOP_0.RFILV01_0.VBIASN" "V"