HEADER
"PSFversion" "1.00"
"simulator" "Eldo"
"date" " 5-Sep-2007 14:24:31"
TYPE
"node" STRUCT(
"v" FLOAT DOUBLE
) PROP(
"key" "node"
)
"BSIM4" STRUCT(
"id" FLOAT DOUBLE
"vgs" FLOAT DOUBLE
"vds" FLOAT DOUBLE
"vbs" FLOAT DOUBLE
"vth" FLOAT DOUBLE
"vdsat" FLOAT DOUBLE
"gm" FLOAT DOUBLE
"gds" FLOAT DOUBLE
"ron" FLOAT DOUBLE
"gmb" FLOAT DOUBLE
"cdd" FLOAT DOUBLE
"cdg" FLOAT DOUBLE
"cds" FLOAT DOUBLE
"cdb" FLOAT DOUBLE
"cgd" FLOAT DOUBLE
"cgg" FLOAT DOUBLE
"cgs" FLOAT DOUBLE
"cgb" FLOAT DOUBLE
"csd" FLOAT DOUBLE
"csg" FLOAT DOUBLE
"css" FLOAT DOUBLE
"csb" FLOAT DOUBLE
"cbd" FLOAT DOUBLE
"cbg" FLOAT DOUBLE
"cbs" FLOAT DOUBLE
"cbb" FLOAT DOUBLE
"phi     " FLOAT DOUBLE
"vbi     " FLOAT DOUBLE
"region" FLOAT DOUBLE
"vth_d" FLOAT DOUBLE
"drain_voltage" FLOAT DOUBLE
"gate_voltage" FLOAT DOUBLE
"source_voltage" FLOAT DOUBLE
"bulk_voltage" FLOAT DOUBLE
"isub" FLOAT DOUBLE
"igidl" FLOAT DOUBLE
"igisl" FLOAT DOUBLE
"ibd" FLOAT DOUBLE
"gbd" FLOAT DOUBLE
"ibs" FLOAT DOUBLE
"gbs" FLOAT DOUBLE
"idedtot" FLOAT DOUBLE
"gdtot" FLOAT DOUBLE
"isestot" FLOAT DOUBLE
"gstot" FLOAT DOUBLE
"grgeltd" FLOAT DOUBLE
"qgate" FLOAT DOUBLE
"qdrn" FLOAT DOUBLE
"qsrc" FLOAT DOUBLE
"qbulk" FLOAT DOUBLE
"qjbd" FLOAT DOUBLE
"cjbd" FLOAT DOUBLE
"qjbs" FLOAT DOUBLE
"cjbs" FLOAT DOUBLE
"cgdo" FLOAT DOUBLE
"cgso" FLOAT DOUBLE
"cgbo" FLOAT DOUBLE
"ueff" FLOAT DOUBLE
"igs" FLOAT DOUBLE
"igcs" FLOAT DOUBLE
"igd" FLOAT DOUBLE
"igcd" FLOAT DOUBLE
"igb" FLOAT DOUBLE
) PROP(
"key" "element"
)
"RESISTOR" STRUCT(
"r" FLOAT DOUBLE
"dv" FLOAT DOUBLE
"id" FLOAT DOUBLE
"p" FLOAT DOUBLE
) PROP(
"key" "element"
)
"CAPACITOR" STRUCT(
"dv" FLOAT DOUBLE
"c" FLOAT DOUBLE
) PROP(
"key" "element"
)
"VS" STRUCT(
"dv" FLOAT DOUBLE
"i" FLOAT DOUBLE
) PROP(
"key" "element"
)
"INDUCTOR" STRUCT(
"id" FLOAT DOUBLE
"l" FLOAT DOUBLE
) PROP(
"key" "element"
)
VALUE
"XIRXRFMIXTRIM0.XR7.XR.REND1" "RESISTOR" (
0.520000
0.00000
0.00000
0.00000
) PROP(
"model" "resistor"
)
"XIRXRFMIXTRIM0.XR7.XR.R1" "RESISTOR" (
3342.93
0.00000
0.00000
0.00000
) PROP(
"model" "resistor"
)
"XIRXRFMIXTRIM0.XR7.XR.R2" "RESISTOR" (
6685.85
0.00000
0.00000
0.00000
) PROP(
"model" "resistor"
)
"XIRXRFMIXTRIM0.XR7.XR.R3" "RESISTOR" (
6685.85
0.00000
0.00000
0.00000
) PROP(
"model" "resistor"
)
"XIRXRFMIXTRIM0.XR7.XR.R4" "RESISTOR" (
3342.93
0.00000
0.00000
0.00000
) PROP(
"model" "resistor"
)
"XIRXRFMIXTRIM0.XR7.XR.REND2" "RESISTOR" (
0.520000
0.00000
0.00000
0.00000
) PROP(
"model" "resistor"
)
"XIRXRFMIXTRIM0.XR7.XR.RSUB" "RESISTOR" (
15.7841
0.00000
0.00000
0.00000
) PROP(
"model" "resistor"
)
"XIRXRFMIXTRIM0.XR5.XR.REND1" "RESISTOR" (
0.520000
0.00000
0.00000
0.00000
) PROP(
"model" "resistor"
)
"XIRXRFMIXTRIM0.XR7.XR.LS1" "INDUCTOR" (
4.75693e-21
5.18355e-12
) PROP(
"model" "inductor"
)
"XIRXRFMIXTRIM0.XR7.XR.LS2" "INDUCTOR" (
-2.10931e-24
1.03671e-11
) PROP(
"model" "inductor"
)
"XIRXRFMIXTRIM0.XR7.XR.LS3" "INDUCTOR" (
-1.77595e-24
1.03671e-11
) PROP(
"model" "inductor"
)
"XIRXRFMIXTRIM0.XR7.XR.LS4" "INDUCTOR" (
0.00000
5.18355e-12
) PROP(
"model" "inductor"
)
"XIRXRFMIXTRIM0.XR5.XR.LS1" "INDUCTOR" (
0.00000
5.18355e-12
) PROP(
"model" "inductor"
)
"XIRXRFMIXTRIM0.XR5.XR.LS2" "INDUCTOR" (
2.03238e-24
1.03671e-11
) PROP(
"model" "inductor"
)
"XIRXRFMIXTRIM0.XR5.XR.LS3" "INDUCTOR" (
2.36573e-24
1.03671e-11
) PROP(
"model" "inductor"
)
"XIRXRFMIXTRIM0.XR5.XR.LS4" "INDUCTOR" (
-2.10064e-21
5.18355e-12
) PROP(
"model" "inductor"
)
"XIRXRFMIXTRIM0.XR5.XR.R1" "RESISTOR" (
3342.93
0.00000
0.00000
0.00000
) PROP(
"model" "resistor"
)
"XIRXRFMIXTRIM0.XR5.XR.R2" "RESISTOR" (
6685.85
0.00000
0.00000
0.00000
) PROP(
"model" "resistor"
)
"XIRXRFMIXTRIM0.XR5.XR.R3" "RESISTOR" (
6685.85
0.00000
0.00000
0.00000
) PROP(
"model" "resistor"
)
"XIRXRFMIXTRIM0.XR5.XR.R4" "RESISTOR" (
3342.93
0.00000
0.00000
0.00000
) PROP(
"model" "resistor"
)
"XIRXRFMIXTRIM0.XR5.XR.REND2" "RESISTOR" (
0.520000
0.00000
0.00000
0.00000
) PROP(
"model" "resistor"
)
"XIRXRFMIXTRIM0.XR5.XR.RSUB" "RESISTOR" (
15.7841
0.00000
0.00000
0.00000
) PROP(
"model" "resistor"
)
"XIRXRFMIXTRIM0.XR4.XR.REND1" "RESISTOR" (
0.520000
0.00000
0.00000
0.00000
) PROP(
"model" "resistor"
)
"XIRXRFMIXTRIM0.XR4.XR.R1" "RESISTOR" (
3342.93
0.00000
0.00000
0.00000
) PROP(
"model" "resistor"
)
"XIRXRFMIXTRIM0.XR4.XR.R2" "RESISTOR" (
6685.85
0.00000
0.00000
0.00000
) PROP(
"model" "resistor"
)
"XIRXRFMIXTRIM0.XR4.XR.R3" "RESISTOR" (
6685.85
0.00000
0.00000
0.00000
) PROP(
"model" "resistor"
)
"XIRXRFMIXTRIM0.XR4.XR.R4" "RESISTOR" (
3342.93
0.00000
0.00000
0.00000
) PROP(
"model" "resistor"
)
"XIRXRFMIXTRIM0.XR4.XR.REND2" "RESISTOR" (
0.520000
0.00000
0.00000
0.00000
) PROP(
"model" "resistor"
)
"XIRXRFMIXTRIM0.XR4.XR.RSUB" "RESISTOR" (
15.7841
0.00000
0.00000
0.00000
) PROP(
"model" "resistor"
)
"XIRXRFMIXTRIM0.XR6.XR.REND1" "RESISTOR" (
0.520000
0.00000
0.00000
0.00000
) PROP(
"model" "resistor"
)
"XIRXRFMIXTRIM0.XR6.XR.R1" "RESISTOR" (
3342.93
0.00000
0.00000
0.00000
) PROP(
"model" "resistor"
)
"XIRXRFMIXTRIM0.XR6.XR.R2" "RESISTOR" (
6685.85
0.00000
0.00000
0.00000
) PROP(
"model" "resistor"
)
"XIRXRFMIXTRIM0.XM1PDAC1.XMN.MAIN" "BSIM4" (
9.26440e-13
-0.897516
-0.000744301
-0.897516
0.630874
0.0498244
3.88329e-26
1.58969e-24
6.29054e+23
6.07404e-27
6.15940e-15
-2.07197e-15
-8.55979e-22
-7.65833e-23
-2.07480e-15
1.31619e-14
-2.07195e-15
-9.01515e-15
-2.02475e-21
-2.07195e-15
6.15865e-15
-7.12169e-23
-4.08460e-15
-9.01798e-15
-4.08670e-15
9.01515e-15
0.856887
1.04316
4.00000
-1.52839
0.896771
3.35606e-30
0.897516
0.00000
7.33897e-46
4.36439e-17
4.51645e-17
-9.26440e-13
1.16206e-12
-9.27306e-13
1.16266e-12
3.21552e-12
0.142230
3.22153e-12
0.142230
0.00835182
9.18170e-15
-3.76821e-23
-3.50416e-23
-9.18170e-15
-4.20314e-15
4.08743e-15
-4.20618e-15
4.08669e-15
2.07197e-15
2.07195e-15
0.00000
0.0283690
-2.29418e-12
-2.03447e-23
-2.28903e-12
-2.03446e-23
-5.91931e-17
) PROP(
"model" "XIRXRFMIXTRIM0.XM1PDAC1.XMN.NCH.3"
"Region" "subthreshold"
)
"XIRXRFMIXTRIM0.XM1PDAC2.XMN.MAIN" "BSIM4" (
9.26440e-13
-0.898100
-0.00132830
-0.898100
0.630867
0.0498244
6.88670e-26
1.56958e-24
6.37114e+23
1.07708e-26
6.15940e-15
-2.07197e-15
-8.02520e-22
-7.75671e-23
-2.07480e-15
1.31619e-14
-2.07194e-15
-9.01515e-15
-1.88566e-21
-2.07194e-15
6.15806e-15
-6.82947e-23
-4.08460e-15
-9.01798e-15
-4.08612e-15
9.01515e-15
0.856887
1.04316
4.00000
-1.52897
0.896771
8.76645e-31
0.898100
0.00000
2.34352e-45
4.36439e-17
4.63918e-17
-9.26440e-13
1.16206e-12
-9.27985e-13
1.16314e-12
3.21552e-12
0.142230
3.22625e-12
0.142230
0.00835182
9.18170e-15
-3.81662e-23
-3.36038e-23
-9.18170e-15
-4.20314e-15
4.08743e-15
-4.20857e-15
4.08612e-15
2.07197e-15
2.07194e-15
0.00000
0.0283691
-2.29822e-12
-2.03441e-23
-2.28903e-12
-2.03432e-23
-5.91931e-17
) PROP(
"model" "XIRXRFMIXTRIM0.XM1PDAC1.XMN.NCH.3"
"Region" "subthreshold"
)
"XIRXRFMIXTRIM0.XM1PDAC3.XMN.MAIN" "BSIM4" (
9.26440e-13
-0.898684
-0.00191230
-0.898684
0.630859
0.0498244
9.85191e-26
1.54950e-24
6.45368e+23
1.54068e-26
6.15940e-15
-2.07197e-15
-7.53587e-22
-7.84901e-23
-2.07480e-15
1.31619e-14
-2.07193e-15
-9.01515e-15
-1.75882e-21
-2.07193e-15
6.15748e-15
-6.55546e-23
-4.08460e-15
-9.01798e-15
-4.08555e-15
9.01515e-15
0.856887
1.04316
4.00000
-1.52954
0.896771
8.79597e-31
0.898684
0.00000
4.87009e-45
4.36439e-17
4.76501e-17
-9.26440e-13
1.16206e-12
-9.28664e-13
1.16362e-12
3.21552e-12
0.142230
3.23099e-12
0.142230
0.00835182
9.18170e-15
-3.86203e-23
-3.22555e-23
-9.18170e-15
-4.20314e-15
4.08743e-15
-4.21095e-15
4.08554e-15
2.07197e-15
2.07193e-15
0.00000
0.0283692
-2.30227e-12
-2.03425e-23
-2.28903e-12
-2.03402e-23
-5.91931e-17
) PROP(
"model" "XIRXRFMIXTRIM0.XM1PDAC1.XMN.NCH.3"
"Region" "subthreshold"
)
"XIRXRFMIXTRIM0.XM1PDAC4.XMN.MAIN" "BSIM4" (
9.26440e-13
-0.899268
-0.00249630
-0.899268
0.630851
0.0498244
1.27790e-25
1.52946e-24
6.53824e+23
1.99823e-26
6.15940e-15
-2.07197e-15
-7.08700e-22
-7.93575e-23
-2.07480e-15
1.31619e-14
-2.07192e-15
-9.01515e-15
-1.64291e-21
-2.07192e-15
6.15689e-15
-6.29814e-23
-4.08460e-15
-9.01798e-15
-4.08497e-15
9.01515e-15
0.856887
1.04316
4.00000
-1.53012
0.896771
-1.08327e-30
0.899268
0.00000
8.32102e-45
4.36439e-17
4.89400e-17
-9.26440e-13
1.16206e-12
-9.29344e-13
1.16409e-12
3.21552e-12
0.142230
3.23573e-12
0.142230
0.00835182
9.18170e-15
-3.90471e-23
-3.09894e-23
-9.18170e-15
-4.20314e-15
4.08743e-15
-4.21334e-15
4.08497e-15
2.07197e-15
2.07192e-15
0.00000
0.0283693
-2.30633e-12
-2.03399e-23
-2.28903e-12
-2.03350e-23
-5.91931e-17
) PROP(
"model" "XIRXRFMIXTRIM0.XM1PDAC1.XMN.NCH.3"
"Region" "subthreshold"
)
"XIRXRFMIXTRIM0.XM1PDAC5.XMN.MAIN" "BSIM4" (
9.26440e-13
-0.899852
-0.00308031
-0.899852
0.630844
0.0498244
1.56680e-25
1.50946e-24
6.62488e+23
2.44973e-26
6.15940e-15
-2.07197e-15
-6.67440e-22
-8.01739e-23
-2.07480e-15
1.31619e-14
-2.07191e-15
-9.01515e-15
-1.53676e-21
-2.07191e-15
6.15630e-15
-6.05614e-23
-4.08460e-15
-9.01798e-15
-4.08440e-15
9.01515e-15
0.856887
1.04316
4.00000
-1.53070
0.896771
3.23800e-30
0.899852
0.00000
1.27039e-44
4.36439e-17
5.02623e-17
-9.26440e-13
1.16206e-12
-9.30024e-13
1.16457e-12
3.21552e-12
0.142230
3.24046e-12
0.142230
0.00835182
9.18170e-15
-3.94488e-23
-2.97987e-23
-9.18170e-15
-4.20314e-15
4.08743e-15
-4.21572e-15
4.08440e-15
2.07197e-15
2.07191e-15
0.00000
0.0283695
-2.31039e-12
-2.03362e-23
-2.28903e-12
-2.03276e-23
-5.91931e-17
) PROP(
"model" "XIRXRFMIXTRIM0.XM1PDAC1.XMN.NCH.3"
"Region" "subthreshold"
)
"XIRXRFMIXTRIM0.XM1PDAC6.XMN.MAIN" "BSIM4" (
9.26440e-13
-0.900436
-0.00366431
-0.900436
0.630836
0.0498244
1.85191e-25
1.48950e-24
6.71367e+23
2.89520e-26
6.15940e-15
-2.07197e-15
-6.29440e-22
-8.09432e-23
-2.07480e-15
1.31618e-14
-2.07190e-15
-9.01515e-15
-1.43937e-21
-2.07189e-15
6.15572e-15
-5.82824e-23
-4.08460e-15
-9.01798e-15
-4.08382e-15
9.01515e-15
0.856887
1.04316
4.00000
-1.53127
0.896771
3.12583e-30
0.900436
0.00000
1.80264e-44
4.36439e-17
5.16176e-17
-9.26440e-13
1.16206e-12
-9.30704e-13
1.16505e-12
3.21552e-12
0.142230
3.24520e-12
0.142230
0.00835182
9.18170e-15
-3.98274e-23
-2.86773e-23
-9.18170e-15
-4.20314e-15
4.08743e-15
-4.21811e-15
4.08382e-15
2.07197e-15
2.07189e-15
0.00000
0.0283696
-2.31445e-12
-2.03314e-23
-2.28903e-12
-2.03180e-23
-5.91931e-17
) PROP(
"model" "XIRXRFMIXTRIM0.XM1PDAC1.XMN.NCH.3"
"Region" "subthreshold"
)
"XIRXRFMIXTRIM0.XM1PDAC7.XMN.MAIN" "BSIM4" (
9.26440e-13
-0.901020
-0.00424832
-0.901020
0.630829
0.0498244
2.13322e-25
1.46957e-24
6.80469e+23
3.33465e-26
6.15940e-15
-2.07197e-15
-5.94378e-22
-8.16692e-23
-2.07480e-15
1.31618e-14
-2.07188e-15
-9.01515e-15
-1.34984e-21
-2.07188e-15
6.15513e-15
-5.61334e-23
-4.08460e-15
-9.01798e-15
-4.08325e-15
9.01515e-15
0.856887
1.04316
4.00000
-1.53185
0.896771
-2.99300e-30
0.901020
0.00000
2.42966e-44
4.36439e-17
5.30068e-17
-9.26440e-13
1.16206e-12
-9.31385e-13
1.16554e-12
3.21552e-12
0.142230
3.24996e-12
0.142230
0.00835182
9.18170e-15
-4.01846e-23
-2.76199e-23
-9.18170e-15
-4.20314e-15
4.08743e-15
-4.22049e-15
4.08325e-15
2.07197e-15
2.07188e-15
0.00000
0.0283697
-2.31852e-12
-2.03256e-23
-2.28903e-12
-2.03064e-23
-5.91931e-17
) PROP(
"model" "XIRXRFMIXTRIM0.XM1PDAC1.XMN.NCH.3"
"Region" "subthreshold"
)
"XIRXRFMIXTRIM0.XM1PDAC0.XMN.MAIN" "BSIM4" (
-2.22310e-11
0.303068
-0.000160304
-0.896932
0.630882
0.0498401
7.41613e-10
1.44212e-07
6.93424e+06
9.54527e-11
8.07991e-15
-2.64309e-15
-1.28202e-15
-6.73651e-17
-1.09521e-15
1.00842e-14
-3.84945e-15
-5.13952e-15
-3.24781e-15
-2.63606e-15
1.00376e-14
-6.64364e-17
-3.73690e-15
-4.80502e-15
-4.90610e-15
5.27332e-15
0.856887
1.04316
4.00000
-0.327813
0.896771
1.20000
0.896932
0.00000
3.04087e-30
0.00000
0.00000
-9.26440e-13
1.16206e-12
-9.26627e-13
1.16219e-12
-2.25086e-11
0.142230
2.37869e-11
0.142230
0.00835182
1.71905e-14
-5.59577e-17
-5.51332e-17
-1.70794e-14
-4.20314e-15
4.08743e-15
-4.20379e-15
4.08727e-15
2.13080e-15
2.13080e-15
0.00000
0.0283688
1.38854e-13
1.48479e-13
1.39024e-13
1.48479e-13
1.85562e-14
) PROP(
"model" "XIRXRFMIXTRIM0.XM1PDAC1.XMN.NCH.3"
"Region" "subthreshold"
)
"XIRXRFMIXTRIM0.XM1NPDAC0.XMN.MAIN" "BSIM4" (
-2.22310e-11
0.303068
-0.000160304
-0.896932
0.630882
0.0498401
7.41613e-10
1.44212e-07
6.93424e+06
9.54527e-11
8.07991e-15
-2.64309e-15
-1.28202e-15
-6.73651e-17
-1.09521e-15
1.00842e-14
-3.84945e-15
-5.13952e-15
-3.24781e-15
-2.63606e-15
1.00376e-14
-6.64364e-17
-3.73690e-15
-4.80502e-15
-4.90610e-15
5.27332e-15
0.856887
1.04316
4.00000
-0.327813
0.896771
1.20000
0.896932
0.00000
3.04087e-30
0.00000
0.00000
-9.26440e-13
1.16206e-12
-9.26627e-13
1.16219e-12
-2.25086e-11
0.142230
2.37869e-11
0.142230
0.00835182
1.71905e-14
-5.59577e-17
-5.51332e-17
-1.70794e-14
-4.20314e-15
4.08743e-15
-4.20379e-15
4.08727e-15
2.13080e-15
2.13080e-15
0.00000
0.0283688
1.38854e-13
1.48479e-13
1.39024e-13
1.48479e-13
1.85562e-14
) PROP(
"model" "XIRXRFMIXTRIM0.XM1PDAC1.XMN.NCH.3"
"Region" "subthreshold"
)
"XIRXRFMIXTRIM0.XM1NDAC1.XMN.MAIN" "BSIM4" (
9.26440e-13
-0.897516
-0.000744301
-0.897516
0.630874
0.0498244
3.88329e-26
1.58969e-24
6.29054e+23
6.07404e-27
6.15940e-15
-2.07197e-15
-8.55979e-22
-7.65833e-23
-2.07480e-15
1.31619e-14
-2.07195e-15
-9.01515e-15
-2.02475e-21
-2.07195e-15
6.15865e-15
-7.12169e-23
-4.08460e-15
-9.01798e-15
-4.08670e-15
9.01515e-15
0.856887
1.04316
4.00000
-1.52839
0.896771
-1.79462e-30
0.897516
0.00000
7.33897e-46
4.36439e-17
4.51645e-17
-9.26440e-13
1.16206e-12
-9.27306e-13
1.16266e-12
3.21553e-12
0.142230
3.22153e-12
0.142230
0.00835182
9.18170e-15
-3.76821e-23
-3.50416e-23
-9.18170e-15
-4.20314e-15
4.08743e-15
-4.20618e-15
4.08669e-15
2.07197e-15
2.07195e-15
0.00000
0.0283690
-2.29418e-12
-2.03447e-23
-2.28903e-12
-2.03446e-23
-5.91931e-17
) PROP(
"model" "XIRXRFMIXTRIM0.XM1PDAC1.XMN.NCH.3"
"Region" "subthreshold"
)
"XIRXRFMIXTRIM0.XM1NDAC2.XMN.MAIN" "BSIM4" (
9.26440e-13
-0.898100
-0.00132830
-0.898100
0.630867
0.0498244
6.88670e-26
1.56958e-24
6.37114e+23
1.07708e-26
6.15940e-15
-2.07197e-15
-8.02520e-22
-7.75671e-23
-2.07480e-15
1.31619e-14
-2.07194e-15
-9.01515e-15
-1.88566e-21
-2.07194e-15
6.15806e-15
-6.82947e-23
-4.08460e-15
-9.01798e-15
-4.08612e-15
9.01515e-15
0.856887
1.04316
4.00000
-1.52897
0.896771
-4.00838e-30
0.898100
0.00000
2.34352e-45
4.36439e-17
4.63918e-17
-9.26440e-13
1.16206e-12
-9.27985e-13
1.16314e-12
3.21553e-12
0.142230
3.22625e-12
0.142230
0.00835182
9.18170e-15
-3.81662e-23
-3.36038e-23
-9.18170e-15
-4.20314e-15
4.08743e-15
-4.20857e-15
4.08612e-15
2.07197e-15
2.07194e-15
0.00000
0.0283691
-2.29822e-12
-2.03441e-23
-2.28903e-12
-2.03432e-23
-5.91931e-17
) PROP(
"model" "XIRXRFMIXTRIM0.XM1PDAC1.XMN.NCH.3"
"Region" "subthreshold"
)
"XIRXRFMIXTRIM0.XM1NDAC3.XMN.MAIN" "BSIM4" (
9.26440e-13
-0.898684
-0.00191230
-0.898684
0.630859
0.0498244
9.85191e-26
1.54950e-24
6.45368e+23
1.54068e-26
6.15940e-15
-2.07197e-15
-7.53587e-22
-7.84901e-23
-2.07480e-15
1.31619e-14
-2.07193e-15
-9.01515e-15
-1.75882e-21
-2.07193e-15
6.15748e-15
-6.55546e-23
-4.08460e-15
-9.01798e-15
-4.08555e-15
9.01515e-15
0.856887
1.04316
4.00000
-1.52954
0.896771
-4.27108e-30
0.898684
0.00000
4.87009e-45
4.36439e-17
4.76501e-17
-9.26440e-13
1.16206e-12
-9.28664e-13
1.16362e-12
3.21553e-12
0.142230
3.23099e-12
0.142230
0.00835182
9.18170e-15
-3.86203e-23
-3.22555e-23
-9.18170e-15
-4.20314e-15
4.08743e-15
-4.21095e-15
4.08554e-15
2.07197e-15
2.07193e-15
0.00000
0.0283692
-2.30227e-12
-2.03425e-23
-2.28903e-12
-2.03402e-23
-5.91931e-17
) PROP(
"model" "XIRXRFMIXTRIM0.XM1PDAC1.XMN.NCH.3"
"Region" "subthreshold"
)
"XIRXRFMIXTRIM0.XM1NDAC4.XMN.MAIN" "BSIM4" (
9.26440e-13
-0.899268
-0.00249630
-0.899268
0.630851
0.0498244
1.27790e-25
1.52946e-24
6.53824e+23
1.99823e-26
6.15940e-15
-2.07197e-15
-7.08700e-22
-7.93575e-23
-2.07480e-15
1.31619e-14
-2.07192e-15
-9.01515e-15
-1.64291e-21
-2.07192e-15
6.15689e-15
-6.29814e-23
-4.08460e-15
-9.01798e-15
-4.08497e-15
9.01515e-15
0.856887
1.04316
4.00000
-1.53012
0.896771
5.85613e-30
0.899268
0.00000
8.32102e-45
4.36439e-17
4.89400e-17
-9.26440e-13
1.16206e-12
-9.29344e-13
1.16409e-12
3.21553e-12
0.142230
3.23573e-12
0.142230
0.00835182
9.18170e-15
-3.90471e-23
-3.09894e-23
-9.18170e-15
-4.20314e-15
4.08743e-15
-4.21334e-15
4.08497e-15
2.07197e-15
2.07192e-15
0.00000
0.0283693
-2.30633e-12
-2.03399e-23
-2.28903e-12
-2.03350e-23
-5.91931e-17
) PROP(
"model" "XIRXRFMIXTRIM0.XM1PDAC1.XMN.NCH.3"
"Region" "subthreshold"
)
"XIRXRFMIXTRIM0.XM1NDAC5.XMN.MAIN" "BSIM4" (
9.26440e-13
-0.899852
-0.00308031
-0.899852
0.630844
0.0498244
1.56680e-25
1.50946e-24
6.62488e+23
2.44973e-26
6.15940e-15
-2.07197e-15
-6.67440e-22
-8.01739e-23
-2.07480e-15
1.31619e-14
-2.07191e-15
-9.01515e-15
-1.53676e-21
-2.07191e-15
6.15630e-15
-6.05614e-23
-4.08460e-15
-9.01798e-15
-4.08440e-15
9.01515e-15
0.856887
1.04316
4.00000
-1.53070
0.896771
-1.64704e-30
0.899852
0.00000
1.27039e-44
4.36439e-17
5.02623e-17
-9.26440e-13
1.16206e-12
-9.30024e-13
1.16457e-12
3.21553e-12
0.142230
3.24046e-12
0.142230
0.00835182
9.18170e-15
-3.94488e-23
-2.97987e-23
-9.18170e-15
-4.20314e-15
4.08743e-15
-4.21572e-15
4.08440e-15
2.07197e-15
2.07191e-15
0.00000
0.0283695
-2.31039e-12
-2.03362e-23
-2.28903e-12
-2.03276e-23
-5.91931e-17
) PROP(
"model" "XIRXRFMIXTRIM0.XM1PDAC1.XMN.NCH.3"
"Region" "subthreshold"
)
"XIRXRFMIXTRIM0.XM1NDAC6.XMN.MAIN" "BSIM4" (
9.26440e-13
-0.900436
-0.00366431
-0.900436
0.630836
0.0498244
1.85191e-25
1.48950e-24
6.71367e+23
2.89520e-26
6.15940e-15
-2.07197e-15
-6.29440e-22
-8.09432e-23
-2.07480e-15
1.31618e-14
-2.07190e-15
-9.01515e-15
-1.43937e-21
-2.07189e-15
6.15572e-15
-5.82824e-23
-4.08460e-15
-9.01798e-15
-4.08382e-15
9.01515e-15
0.856887
1.04316
4.00000
-1.53127
0.896771
-1.75920e-30
0.900436
0.00000
1.80264e-44
4.36439e-17
5.16176e-17
-9.26440e-13
1.16206e-12
-9.30704e-13
1.16505e-12
3.21553e-12
0.142230
3.24520e-12
0.142230
0.00835182
9.18170e-15
-3.98274e-23
-2.86773e-23
-9.18170e-15
-4.20314e-15
4.08743e-15
-4.21811e-15
4.08382e-15
2.07197e-15
2.07189e-15
0.00000
0.0283696
-2.31445e-12
-2.03314e-23
-2.28903e-12
-2.03180e-23
-5.91931e-17
) PROP(
"model" "XIRXRFMIXTRIM0.XM1PDAC1.XMN.NCH.3"
"Region" "subthreshold"
)
"XIRXRFMIXTRIM0.XM1NDAC7.XMN.MAIN" "BSIM4" (
9.26440e-13
-0.901020
-0.00424832
-0.901020
0.630829
0.0498244
2.13322e-25
1.46957e-24
6.80469e+23
3.33465e-26
6.15940e-15
-2.07197e-15
-5.94378e-22
-8.16692e-23
-2.07480e-15
1.31618e-14
-2.07188e-15
-9.01515e-15
-1.34984e-21
-2.07188e-15
6.15513e-15
-5.61334e-23
-4.08460e-15
-9.01798e-15
-4.08325e-15
9.01515e-15
0.856887
1.04316
4.00000
-1.53185
0.896771
-1.56734e-30
0.901020
0.00000
2.42966e-44
4.36439e-17
5.30068e-17
-9.26440e-13
1.16206e-12
-9.31385e-13
1.16554e-12
3.21553e-12
0.142230
3.24996e-12
0.142230
0.00835182
9.18170e-15
-4.01846e-23
-2.76199e-23
-9.18170e-15
-4.20314e-15
4.08743e-15
-4.22049e-15
4.08325e-15
2.07197e-15
2.07188e-15
0.00000
0.0283697
-2.31852e-12
-2.03256e-23
-2.28903e-12
-2.03064e-23
-5.91931e-17
) PROP(
"model" "XIRXRFMIXTRIM0.XM1PDAC1.XMN.NCH.3"
"Region" "subthreshold"
)
"XIRXRFMIXTRIM0.XM0NDAC7.XMN.MAIN" "BSIM4" (
9.26440e-13
-0.901020
-0.00424832
-0.901020
0.630829
0.0498244
2.13322e-25
1.46957e-24
6.80469e+23
3.33465e-26
6.15940e-15
-2.07197e-15
-5.94378e-22
-8.16692e-23
-2.07480e-15
1.31618e-14
-2.07188e-15
-9.01515e-15
-1.34984e-21
-2.07188e-15
6.15513e-15
-5.61334e-23
-4.08460e-15
-9.01798e-15
-4.08325e-15
9.01515e-15
0.856887
1.04316
4.00000
-1.53185
0.896771
1.23085e-30
0.901020
0.00000
2.42966e-44
4.36439e-17
5.30068e-17
-9.26440e-13
1.16206e-12
-9.31385e-13
1.16554e-12
3.21553e-12
0.142230
3.24996e-12
0.142230
0.00835182
9.18170e-15
-4.01846e-23
-2.76199e-23
-9.18170e-15
-4.20314e-15
4.08743e-15
-4.22049e-15
4.08325e-15
2.07197e-15
2.07188e-15
0.00000
0.0283697
-2.31852e-12
-2.03256e-23
-2.28903e-12
-2.03064e-23
-5.91931e-17
) PROP(
"model" "XIRXRFMIXTRIM0.XM1PDAC1.XMN.NCH.3"
"Region" "subthreshold"
)
"XIRXRFMIXTRIM0.XM0NDAC6.XMN.MAIN" "BSIM4" (
9.26440e-13
-0.900436
-0.00366431
-0.900436
0.630836
0.0498244
1.85191e-25
1.48950e-24
6.71367e+23
2.89520e-26
6.15940e-15
-2.07197e-15
-6.29440e-22
-8.09432e-23
-2.07480e-15
1.31618e-14
-2.07190e-15
-9.01515e-15
-1.43937e-21
-2.07189e-15
6.15572e-15
-5.82824e-23
-4.08460e-15
-9.01798e-15
-4.08382e-15
9.01515e-15
0.856887
1.04316
4.00000
-1.53127
0.896771
1.03604e-30
0.900436
0.00000
1.80264e-44
4.36439e-17
5.16176e-17
-9.26440e-13
1.16206e-12
-9.30704e-13
1.16505e-12
3.21553e-12
0.142230
3.24520e-12
0.142230
0.00835182
9.18170e-15
-3.98274e-23
-2.86773e-23
-9.18170e-15
-4.20314e-15
4.08743e-15
-4.21811e-15
4.08382e-15
2.07197e-15
2.07189e-15
0.00000
0.0283696
-2.31445e-12
-2.03314e-23
-2.28903e-12
-2.03180e-23
-5.91931e-17
) PROP(
"model" "XIRXRFMIXTRIM0.XM1PDAC1.XMN.NCH.3"
"Region" "subthreshold"
)
"XIRXRFMIXTRIM0.XM0NDAC5.XMN.MAIN" "BSIM4" (
9.26440e-13
-0.899852
-0.00308031
-0.899852
0.630844
0.0498244
1.56680e-25
1.50946e-24
6.62488e+23
2.44973e-26
6.15940e-15
-2.07197e-15
-6.67440e-22
-8.01739e-23
-2.07480e-15
1.31619e-14
-2.07191e-15
-9.01515e-15
-1.53676e-21
-2.07191e-15
6.15630e-15
-6.05614e-23
-4.08460e-15
-9.01798e-15
-4.08440e-15
9.01515e-15
0.856887
1.04316
4.00000
-1.53070
0.896771
1.34006e-30
0.899852
0.00000
1.27039e-44
4.36439e-17
5.02623e-17
-9.26440e-13
1.16206e-12
-9.30024e-13
1.16457e-12
3.21553e-12
0.142230
3.24046e-12
0.142230
0.00835182
9.18170e-15
-3.94488e-23
-2.97987e-23
-9.18170e-15
-4.20314e-15
4.08743e-15
-4.21572e-15
4.08440e-15
2.07197e-15
2.07191e-15
0.00000
0.0283695
-2.31039e-12
-2.03362e-23
-2.28903e-12
-2.03276e-23
-5.91931e-17
) PROP(
"model" "XIRXRFMIXTRIM0.XM1PDAC1.XMN.NCH.3"
"Region" "subthreshold"
)
"XIRXRFMIXTRIM0.XM0NDAC4.XMN.MAIN" "BSIM4" (
9.26440e-13
-0.899268
-0.00249630
-0.899268
0.630851
0.0498244
1.27790e-25
1.52946e-24
6.53824e+23
1.99823e-26
6.15940e-15
-2.07197e-15
-7.08700e-22
-7.93575e-23
-2.07480e-15
1.31619e-14
-2.07192e-15
-9.01515e-15
-1.64291e-21
-2.07192e-15
6.15689e-15
-6.29814e-23
-4.08460e-15
-9.01798e-15
-4.08497e-15
9.01515e-15
0.856887
1.04316
4.00000
-1.53012
0.896771
3.06385e-30
0.899268
0.00000
8.32102e-45
4.36439e-17
4.89400e-17
-9.26440e-13
1.16206e-12
-9.29344e-13
1.16409e-12
3.21553e-12
0.142230
3.23573e-12
0.142230
0.00835182
9.18170e-15
-3.90471e-23
-3.09894e-23
-9.18170e-15
-4.20314e-15
4.08743e-15
-4.21334e-15
4.08497e-15
2.07197e-15
2.07192e-15
0.00000
0.0283693
-2.30633e-12
-2.03399e-23
-2.28903e-12
-2.03350e-23
-5.91931e-17
) PROP(
"model" "XIRXRFMIXTRIM0.XM1PDAC1.XMN.NCH.3"
"Region" "subthreshold"
)
"XIRXRFMIXTRIM0.XM0NDAC3.XMN.MAIN" "BSIM4" (
9.26440e-13
-0.898684
-0.00191230
-0.898684
0.630859
0.0498244
9.85191e-26
1.54950e-24
6.45368e+23
1.54068e-26
6.15940e-15
-2.07197e-15
-7.53587e-22
-7.84901e-23
-2.07480e-15
1.31619e-14
-2.07193e-15
-9.01515e-15
-1.75882e-21
-2.07193e-15
6.15748e-15
-6.55546e-23
-4.08460e-15
-9.01798e-15
-4.08555e-15
9.01515e-15
0.856887
1.04316
4.00000
-1.52954
0.896771
-9.97668e-31
0.898684
0.00000
4.87009e-45
4.36439e-17
4.76501e-17
-9.26440e-13
1.16206e-12
-9.28664e-13
1.16362e-12
3.21553e-12
0.142230
3.23099e-12
0.142230
0.00835182
9.18170e-15
-3.86203e-23
-3.22555e-23
-9.18170e-15
-4.20314e-15
4.08743e-15
-4.21095e-15
4.08554e-15
2.07197e-15
2.07193e-15
0.00000
0.0283692
-2.30227e-12
-2.03425e-23
-2.28903e-12
-2.03402e-23
-5.91931e-17
) PROP(
"model" "XIRXRFMIXTRIM0.XM1PDAC1.XMN.NCH.3"
"Region" "subthreshold"
)
"XIRXRFMIXTRIM0.XM0NDAC2.XMN.MAIN" "BSIM4" (
9.26440e-13
-0.898100
-0.00132830
-0.898100
0.630867
0.0498244
6.88670e-26
1.56958e-24
6.37114e+23
1.07708e-26
6.15940e-15
-2.07197e-15
-8.02520e-22
-7.75671e-23
-2.07480e-15
1.31619e-14
-2.07194e-15
-9.01515e-15
-1.88566e-21
-2.07194e-15
6.15806e-15
-6.82947e-23
-4.08460e-15
-9.01798e-15
-4.08612e-15
9.01515e-15
0.856887
1.04316
4.00000
-1.52897
0.896771
-7.34968e-31
0.898100
0.00000
2.34352e-45
4.36439e-17
4.63918e-17
-9.26440e-13
1.16206e-12
-9.27985e-13
1.16314e-12
3.21553e-12
0.142230
3.22625e-12
0.142230
0.00835182
9.18170e-15
-3.81662e-23
-3.36038e-23
-9.18170e-15
-4.20314e-15
4.08743e-15
-4.20857e-15
4.08612e-15
2.07197e-15
2.07194e-15
0.00000
0.0283691
-2.29822e-12
-2.03441e-23
-2.28903e-12
-2.03432e-23
-5.91931e-17
) PROP(
"model" "XIRXRFMIXTRIM0.XM1PDAC1.XMN.NCH.3"
"Region" "subthreshold"
)
"XIRXRFMIXTRIM0.XM0NDAC1.XMN.MAIN" "BSIM4" (
9.26440e-13
-0.897516
-0.000744301
-0.897516
0.630874
0.0498244
3.88329e-26
1.58969e-24
6.29054e+23
6.07404e-27
6.15940e-15
-2.07197e-15
-8.55979e-22
-7.65833e-23
-2.07480e-15
1.31619e-14
-2.07195e-15
-9.01515e-15
-2.02475e-21
-2.07195e-15
6.15865e-15
-7.12169e-23
-4.08460e-15
-9.01798e-15
-4.08670e-15
9.01515e-15
0.856887
1.04316
4.00000
-1.52839
0.896771
1.53488e-30
0.897516
0.00000
7.33897e-46
4.36439e-17
4.51645e-17
-9.26440e-13
1.16206e-12
-9.27306e-13
1.16266e-12
3.21553e-12
0.142230
3.22153e-12
0.142230
0.00835182
9.18170e-15
-3.76821e-23
-3.50416e-23
-9.18170e-15
-4.20314e-15
4.08743e-15
-4.20618e-15
4.08669e-15
2.07197e-15
2.07195e-15
0.00000
0.0283690
-2.29418e-12
-2.03447e-23
-2.28903e-12
-2.03446e-23
-5.91931e-17
) PROP(
"model" "XIRXRFMIXTRIM0.XM1PDAC1.XMN.NCH.3"
"Region" "subthreshold"
)
"XIRXRFMIXTRIM0.XM0NDAC0.XMN.MAIN" "BSIM4" (
-2.22310e-11
0.303068
-0.000160304
-0.896932
0.630882
0.0498401
7.41613e-10
1.44212e-07
6.93424e+06
9.54527e-11
8.07991e-15
-2.64309e-15
-1.28202e-15
-6.73651e-17
-1.09521e-15
1.00842e-14
-3.84945e-15
-5.13952e-15
-3.24781e-15
-2.63606e-15
1.00376e-14
-6.64364e-17
-3.73690e-15
-4.80502e-15
-4.90610e-15
5.27332e-15
0.856887
1.04316
4.00000
-0.327813
0.896771
1.20000
0.896932
0.00000
3.04087e-30
0.00000
0.00000
-9.26440e-13
1.16206e-12
-9.26627e-13
1.16219e-12
-2.25086e-11
0.142230
2.37869e-11
0.142230
0.00835182
1.71905e-14
-5.59577e-17
-5.51332e-17
-1.70794e-14
-4.20314e-15
4.08743e-15
-4.20379e-15
4.08727e-15
2.13080e-15
2.13080e-15
0.00000
0.0283688
1.38854e-13
1.48479e-13
1.39024e-13
1.48479e-13
1.85562e-14
) PROP(
"model" "XIRXRFMIXTRIM0.XM1PDAC1.XMN.NCH.3"
"Region" "subthreshold"
)
"XIRXRFMIXTRIM0.XR6.XR.R3" "RESISTOR" (
6685.85
0.00000
0.00000
0.00000
) PROP(
"model" "resistor"
)
"XIRXRFMIXTRIM0.XR6.XR.R4" "RESISTOR" (
3342.93
0.00000
0.00000
0.00000
) PROP(
"model" "resistor"
)
"XIRXRFMIXTRIM0.XR6.XR.REND2" "RESISTOR" (
0.520000
0.00000
0.00000
0.00000
) PROP(
"model" "resistor"
)
"XIRXRFMIXTRIM0.XR6.XR.RSUB" "RESISTOR" (
15.7841
0.00000
0.00000
0.00000
) PROP(
"model" "resistor"
)
"XIRXRFMIXTRIM0.XRDACBOTTOM.XR.REND1" "RESISTOR" (
0.520001
2.07376e-06
3.98799e-06
8.27012e-12
) PROP(
"model" "resistor"
)
"XIRXRFMIXTRIM0.XRDACBOTTOM.XR.R1" "RESISTOR" (
56226.8
0.224232
3.98799e-06
8.94234e-07
) PROP(
"model" "resistor"
)
"XIRXRFMIXTRIM0.XRDACBOTTOM.XR.R2" "RESISTOR" (
56226.8
0.224232
3.98799e-06
8.94234e-07
) PROP(
"model" "resistor"
)
"XIRXRFMIXTRIM0.XRDACBOTTOM.XR.R3" "RESISTOR" (
56226.8
0.224232
3.98799e-06
8.94234e-07
) PROP(
"model" "resistor"
)
"XIRXRFMIXTRIM0.XRDACBOTTOM.XR.R4" "RESISTOR" (
56226.8
0.224232
3.98799e-06
8.94234e-07
) PROP(
"model" "resistor"
)
"XIRXRFMIXTRIM0.XRDACBOTTOM.XR.REND2" "RESISTOR" (
0.520001
2.07376e-06
3.98799e-06
8.27012e-12
) PROP(
"model" "resistor"
)
"XIRXRFMIXTRIM0.XRDAC6.XR.REND1" "RESISTOR" (
0.520001
2.07383e-06
3.98813e-06
8.27070e-12
) PROP(
"model" "resistor"
)
"XIRXRFMIXTRIM0.XRDAC6.XR.R1" "RESISTOR" (
36.3490
0.000144965
3.98813e-06
5.78137e-10
) PROP(
"model" "resistor"
)
"XIRXRFMIXTRIM0.XRDAC6.XR.R2" "RESISTOR" (
36.3490
0.000144965
3.98813e-06
5.78137e-10
) PROP(
"model" "resistor"
)
"XIRXRFMIXTRIM0.XRDAC6.XR.R3" "RESISTOR" (
36.3490
0.000144965
3.98813e-06
5.78137e-10
) PROP(
"model" "resistor"
)
"XIRXRFMIXTRIM0.XRDAC6.XR.R4" "RESISTOR" (
36.3490
0.000144965
3.98813e-06
5.78137e-10
) PROP(
"model" "resistor"
)
"XIRXRFMIXTRIM0.XRDAC6.XR.REND2" "RESISTOR" (
0.520001
2.07383e-06
3.98813e-06
8.27070e-12
) PROP(
"model" "resistor"
)
"XIRXRFMIXTRIM0.XRDAC5.XR.REND1" "RESISTOR" (
0.520001
2.07382e-06
3.98812e-06
8.27064e-12
) PROP(
"model" "resistor"
)
"XIRXRFMIXTRIM0.XRDAC5.XR.R1" "RESISTOR" (
36.3490
0.000144964
3.98812e-06
5.78134e-10
) PROP(
"model" "resistor"
)
"XIRXRFMIXTRIM0.XRDAC5.XR.R2" "RESISTOR" (
36.3490
0.000144964
3.98812e-06
5.78134e-10
) PROP(
"model" "resistor"
)
"XIRXRFMIXTRIM0.XRDAC5.XR.R3" "RESISTOR" (
36.3490
0.000144964
3.98812e-06
5.78134e-10
) PROP(
"model" "resistor"
)
"XIRXRFMIXTRIM0.XRDAC5.XR.R4" "RESISTOR" (
36.3490
0.000144964
3.98812e-06
5.78134e-10
) PROP(
"model" "resistor"
)
"XIRXRFMIXTRIM0.XRDAC5.XR.REND2" "RESISTOR" (
0.520001
2.07382e-06
3.98812e-06
8.27064e-12
) PROP(
"model" "resistor"
)
"XIRXRFMIXTRIM0.XRDAC4.XR.REND1" "RESISTOR" (
0.520001
2.07382e-06
3.98810e-06
8.27059e-12
) PROP(
"model" "resistor"
)
"XIRXRFMIXTRIM0.XRDAC4.XR.R1" "RESISTOR" (
36.3490
0.000144964
3.98810e-06
5.78130e-10
) PROP(
"model" "resistor"
)
"XIRXRFMIXTRIM0.XRDAC4.XR.R2" "RESISTOR" (
36.3490
0.000144964
3.98810e-06
5.78130e-10
) PROP(
"model" "resistor"
)
"XIRXRFMIXTRIM0.XRDAC4.XR.R3" "RESISTOR" (
36.3490
0.000144964
3.98810e-06
5.78130e-10
) PROP(
"model" "resistor"
)
"XIRXRFMIXTRIM0.XRDAC4.XR.R4" "RESISTOR" (
36.3490
0.000144964
3.98810e-06
5.78130e-10
) PROP(
"model" "resistor"
)
"XIRXRFMIXTRIM0.XRDAC4.XR.REND2" "RESISTOR" (
0.520001
2.07382e-06
3.98810e-06
8.27059e-12
) PROP(
"model" "resistor"
)
"XIRXRFMIXTRIM0.XRDAC3.XR.REND1" "RESISTOR" (
0.520001
2.07381e-06
3.98809e-06
8.27054e-12
) PROP(
"model" "resistor"
)
"XIRXRFMIXTRIM0.XRDAC3.XR.R1" "RESISTOR" (
36.3490
0.000144963
3.98809e-06
5.78126e-10
) PROP(
"model" "resistor"
)
"XIRXRFMIXTRIM0.XRDAC3.XR.R2" "RESISTOR" (
36.3490
0.000144963
3.98809e-06
5.78126e-10
) PROP(
"model" "resistor"
)
"XIRXRFMIXTRIM0.XRDAC3.XR.R3" "RESISTOR" (
36.3490
0.000144963
3.98809e-06
5.78126e-10
) PROP(
"model" "resistor"
)
"XIRXRFMIXTRIM0.XRDAC3.XR.R4" "RESISTOR" (
36.3490
0.000144963
3.98809e-06
5.78126e-10
) PROP(
"model" "resistor"
)
"XIRXRFMIXTRIM0.XRDAC3.XR.REND2" "RESISTOR" (
0.520001
2.07381e-06
3.98809e-06
8.27054e-12
) PROP(
"model" "resistor"
)
"XIRXRFMIXTRIM0.XRDAC2.XR.REND1" "RESISTOR" (
0.520001
2.07380e-06
3.98808e-06
8.27048e-12
) PROP(
"model" "resistor"
)
"XIRXRFMIXTRIM0.XRDAC2.XR.R1" "RESISTOR" (
36.3490
0.000144963
3.98808e-06
5.78122e-10
) PROP(
"model" "resistor"
)
"XIRXRFMIXTRIM0.XRDAC2.XR.R2" "RESISTOR" (
36.3490
0.000144963
3.98808e-06
5.78122e-10
) PROP(
"model" "resistor"
)
"XIRXRFMIXTRIM0.XRDAC2.XR.R3" "RESISTOR" (
36.3490
0.000144963
3.98808e-06
5.78122e-10
) PROP(
"model" "resistor"
)