HEADER
"PSFversion" "1.00"
"simulator" "spectre"
"version" "4.4.3.100.35"
"date" "5:24:46 PM, Thur Jan 11, 2001"
"design" "* # FILE NAME: /PROJ1/SID/USERS/HENJO/CADENCE/SIM/VCO_BIPOLAR_TESTBENCH/"
"analysis type" "td.pss"
"analysis name" "pss0"
"analysis description" "Periodic Steady-State Analysis `pss0': time = (7.39095 ns -> 7.81781 ns)"
"tolerance.relative" 1.00000e-05
"fundamental" 2.34268e+09
"start" 7.39095e-09
"outputstart" 0.00000
"stop" 7.81781e-09
"period" 4.26862e-10
"steadyratio" 1.00000e-05
"step" 5.48619e-12
"maxstep" 5.48619e-11
"ic" "all"
"skipdc" "no"
"reltol" 1.00000e-06
"abstol(V)" 3.00000e-08
"abstol(I)" 1.00000e-13
"temp" 27.0000
"tnom" 27.0000
"tempeffects" "all"
"errpreset" "conservative"
"method" "traponly"
"lteratio" 10.0000
"relref" "alllocal"
"cmin" 0.00000
"gmin" 1.00000e-12
TYPE
"sweep" FLOAT DOUBLE PROP(
"key" "sweep"
)
"V" FLOAT DOUBLE PROP(
"units" "V"
"key" "node"
"tolerance" 3.00000e-08
)
"I" FLOAT DOUBLE PROP(
"units" "A"
"key" "branch"
"tolerance" 1.00000e-13
)
"U" FLOAT DOUBLE PROP(
"key" "node"
"tolerance" 1.00000e-06
)
"MMF" FLOAT DOUBLE PROP(
"units" "A*turn"
"key" "node"
"tolerance" 1.00000e-12
)
"Wb" FLOAT DOUBLE PROP(
"units" "Wb"
"key" "node"
"tolerance" 1.00000e-09
)
"Temp" FLOAT DOUBLE PROP(
"units" "C"
"key" "node"
"tolerance" 0.000100000
)
"Pwr" FLOAT DOUBLE PROP(
"units" "W"
"key" "node"
"tolerance" 1.00000e-09
)
SWEEP
"time" "sweep" PROP(
"sweep_direction" 0
"units" "s"
"plot" 0
"grid" 1
)
TRACE
"1" "V"
"2" "V"
"net15" "V"
"net21" "V"
"net23" "V"
"v2:p" "I"
"v3:p" "I"
"v9:p" "I"
"vdd!" "V"
"xi1.net50" "V"
"xi1.net86" "V"
"xi1.net116" "V"
"xi1.net151" "V"
"xi1.net157" "V"
"xi1.net158" "V"
"xi1.net169" "V"
"xi1.net174" "V"
"xi1.net176" "V"
"xi1.net184" "V"
"xi1.net199" "V"
"xi1.net207" "V"
"xi1.net211" "V"
"xi1.net215" "V"
"xi1.xi93.xl0.li0:1" "I"
"xi1.xi93.xl0.li1:1" "I"
"xi1.xi93.xl0.net4" "V"
"xi1.xi93.xl0.net6" "V"
"xi1.xi93.xl0.net9" "V"
"xi1.xi93.xl0.net10" "V"
VALUE
"time" 7.39095e-09
"1" 3.02357
"2" 2.95970
"net15" 3.00000
"net21" 0.00000
"net23" 2.00052
"v2:p" -0.00476245
"v3:p" -5.78819e-08
"v9:p" -0.0122054
"vdd!" 5.00000
"xi1.net50" -0.00165452
"xi1.net86" 2.20317
"xi1.net116" 1.08116
"xi1.net151" 4.83036
"xi1.net157" 4.82572
"xi1.net158" 3.76678
"xi1.net169" 1.94358
"xi1.net174" 0.253895
"xi1.net176" 0.252594
"xi1.net184" 0.254346
"xi1.net199" 1.14586
"xi1.net207" 1.90117
"xi1.net211" 0.921742
"xi1.net215" 1.84347
"xi1.xi93.xl0.li0:1" -0.0149624
"xi1.xi93.xl0.li1:1" 0.0197249
"xi1.xi93.xl0.net4" -0.0871086
"xi1.xi93.xl0.net6" 0.0599911
"xi1.xi93.xl0.net9" 3.07685
"xi1.xi93.xl0.net10" 2.91927
"time" 7.39111e-09
"1" 3.02430
"2" 2.95901
"net15" 3.00000
"net21" 0.00000
"net23" 2.00050
"v2:p" -0.00476293
"v3:p" -5.70915e-08
"v9:p" -0.0122053
"vdd!" 5.00000
"xi1.net50" -0.00163170
"xi1.net86" 2.20317
"xi1.net116" 1.08116
"xi1.net151" 4.83036
"xi1.net157" 4.82572
"xi1.net158" 3.76677
"xi1.net169" 1.94377
"xi1.net174" 0.253899
"xi1.net176" 0.252604
"xi1.net184" 0.254350
"xi1.net199" 1.14586
"xi1.net207" 1.90094
"xi1.net211" 0.921743
"xi1.net215" 1.84347
"xi1.xi93.xl0.li0:1" -0.0149521
"xi1.xi93.xl0.li1:1" 0.0197151
"xi1.xi93.xl0.net4" -0.0877582
"xi1.xi93.xl0.net6" 0.0607077
"xi1.xi93.xl0.net9" 3.07756
"xi1.xi93.xl0.net10" 2.91862
"time" 7.39120e-09
"1" 3.02472
"2" 2.95861
"net15" 3.00000
"net21" 0.00000
"net23" 2.00048
"v2:p" -0.00476321
"v3:p" -5.66330e-08
"v9:p" -0.0122052
"vdd!" 5.00000
"xi1.net50" -0.00161847
"xi1.net86" 2.20317
"xi1.net116" 1.08116
"xi1.net151" 4.83036
"xi1.net157" 4.82572
"xi1.net158" 3.76677
"xi1.net169" 1.94389
"xi1.net174" 0.253901
"xi1.net176" 0.252610
"xi1.net184" 0.254352
"xi1.net199" 1.14587
"xi1.net207" 1.90080
"xi1.net211" 0.921743
"xi1.net215" 1.84347
"xi1.xi93.xl0.li0:1" -0.0149460
"xi1.xi93.xl0.li1:1" 0.0197093
"xi1.xi93.xl0.net4" -0.0881405
"xi1.xi93.xl0.net6" 0.0611291
"xi1.xi93.xl0.net9" 3.07797
"xi1.xi93.xl0.net10" 2.91823
"time" 7.39128e-09
"1" 3.02514
"2" 2.95822
"net15" 3.00000
"net21" 0.00000
"net23" 2.00047
"v2:p" -0.00476349
"v3:p" -5.61943e-08
"v9:p" -0.0122051
"vdd!" 5.00000
"xi1.net50" -0.00160583
"xi1.net86" 2.20317
"xi1.net116" 1.08117
"xi1.net151" 4.83036
"xi1.net157" 4.82571
"xi1.net158" 3.76677
"xi1.net169" 1.94400
"xi1.net174" 0.253903
"xi1.net176" 0.252616
"xi1.net184" 0.254354
"xi1.net199" 1.14587
"xi1.net207" 1.90067
"xi1.net211" 0.921744
"xi1.net215" 1.84347
"xi1.xi93.xl0.li0:1" -0.0149402
"xi1.xi93.xl0.li1:1" 0.0197037
"xi1.xi93.xl0.net4" -0.0885089
"xi1.xi93.xl0.net6" 0.0615349
"xi1.xi93.xl0.net9" 3.07837
"xi1.xi93.xl0.net10" 2.91786
"time" 7.39137e-09
"1" 3.02556
"2" 2.95783
"net15" 3.00000
"net21" 0.00000
"net23" 2.00045
"v2:p" -0.00476376
"v3:p" -5.57524e-08
"v9:p" -0.0122051
"vdd!" 5.00000
"xi1.net50" -0.00159312
"xi1.net86" 2.20317
"xi1.net116" 1.08117
"xi1.net151" 4.83035
"xi1.net157" 4.82571
"xi1.net158" 3.76676
"xi1.net169" 1.94411
"xi1.net174" 0.253906
"xi1.net176" 0.252621
"xi1.net184" 0.254357
"xi1.net199" 1.14587
"xi1.net207" 1.90054
"xi1.net211" 0.921744
"xi1.net215" 1.84348
"xi1.xi93.xl0.li0:1" -0.0149341
"xi1.xi93.xl0.li1:1" 0.0196979
"xi1.xi93.xl0.net4" -0.0888854
"xi1.xi93.xl0.net6" 0.0619494
"xi1.xi93.xl0.net9" 3.07878
"xi1.xi93.xl0.net10" 2.91748
"time" 7.39155e-09
"1" 3.02640
"2" 2.95703
"net15" 3.00000
"net21" 0.00000
"net23" 2.00042
"v2:p" -0.00476431
"v3:p" -5.48876e-08
"v9:p" -0.0122049
"vdd!" 5.00000
"xi1.net50" -0.00156829
"xi1.net86" 2.20317
"xi1.net116" 1.08117
"xi1.net151" 4.83035
"xi1.net157" 4.82571
"xi1.net158" 3.76676
"xi1.net169" 1.94433
"xi1.net174" 0.253910
"xi1.net176" 0.252633
"xi1.net184" 0.254361
"xi1.net199" 1.14588
"xi1.net207" 1.90027
"xi1.net211" 0.921745
"xi1.net215" 1.84348
"xi1.xi93.xl0.li0:1" -0.0149220
"xi1.xi93.xl0.li1:1" 0.0196863
"xi1.xi93.xl0.net4" -0.0896389
"xi1.xi93.xl0.net6" 0.0627776
"xi1.xi93.xl0.net9" 3.07959
"xi1.xi93.xl0.net10" 2.91672
"time" 7.39188e-09
"1" 3.02793
"2" 2.95559
"net15" 3.00000
"net21" 0.00000
"net23" 2.00036
"v2:p" -0.00476528
"v3:p" -5.33856e-08
"v9:p" -0.0122046
"vdd!" 5.00000
"xi1.net50" -0.00152535
"xi1.net86" 2.20318
"xi1.net116" 1.08119
"xi1.net151" 4.83035
"xi1.net157" 4.82571
"xi1.net158" 3.76675
"xi1.net169" 1.94473
"xi1.net174" 0.253917
"xi1.net176" 0.252653
"xi1.net184" 0.254369
"xi1.net199" 1.14588
"xi1.net207" 1.89979
"xi1.net211" 0.921747
"xi1.net215" 1.84348
"xi1.xi93.xl0.li0:1" -0.0148997
"xi1.xi93.xl0.li1:1" 0.0196650
"xi1.xi93.xl0.net4" -0.0910061
"xi1.xi93.xl0.net6" 0.0642764
"xi1.xi93.xl0.net9" 3.08106
"xi1.xi93.xl0.net10" 2.91534
"time" 7.39227e-09
"1" 3.02980
"2" 2.95382
"net15" 3.00000
"net21" 0.00000
"net23" 2.00029
"v2:p" -0.00476643
"v3:p" -5.16649e-08
"v9:p" -0.0122042
"vdd!" 5.00000
"xi1.net50" -0.00147651
"xi1.net86" 2.20318
"xi1.net116" 1.08121
"xi1.net151" 4.83034
"xi1.net157" 4.82570
"xi1.net158" 3.76674
"xi1.net169" 1.94523
"xi1.net174" 0.253927
"xi1.net176" 0.252678
"xi1.net184" 0.254379
"xi1.net199" 1.14589
"xi1.net207" 1.89920
"xi1.net211" 0.921748
"xi1.net215" 1.84348
"xi1.xi93.xl0.li0:1" -0.0148719
"xi1.xi93.xl0.li1:1" 0.0196383
"xi1.xi93.xl0.net4" -0.0926800
"xi1.xi93.xl0.net6" 0.0661046
"xi1.xi93.xl0.net9" 3.08285
"xi1.xi93.xl0.net10" 2.91365
"time" 7.39277e-09
"1" 3.03214
"2" 2.95159
"net15" 3.00000
"net21" 0.00000
"net23" 2.00020
"v2:p" -0.00476784
"v3:p" -4.96771e-08
"v9:p" -0.0122038
"vdd!" 5.00000
"xi1.net50" -0.00142067
"xi1.net86" 2.20318
"xi1.net116" 1.08125
"xi1.net151" 4.83033
"xi1.net157" 4.82569
"xi1.net158" 3.76673
"xi1.net169" 1.94585
"xi1.net174" 0.253938
"xi1.net176" 0.252710
"xi1.net184" 0.254392
"xi1.net199" 1.14591
"xi1.net207" 1.89845
"xi1.net211" 0.921751
"xi1.net215" 1.84349
"xi1.xi93.xl0.li0:1" -0.0148361
"xi1.xi93.xl0.li1:1" 0.0196039
"xi1.xi93.xl0.net4" -0.0947967
"xi1.xi93.xl0.net6" 0.0684054
"xi1.xi93.xl0.net9" 3.08510
"xi1.xi93.xl0.net10" 2.91151
"time" 7.39343e-09
"1" 3.03523
"2" 2.94863
"net15" 3.00000
"net21" 0.00000
"net23" 2.00008
"v2:p" -0.00476964
"v3:p" -4.73759e-08
"v9:p" -0.0122031
"vdd!" 5.00000
"xi1.net50" -0.00135711
"xi1.net86" 2.20319
"xi1.net116" 1.08132
"xi1.net151" 4.83032
"xi1.net157" 4.82569
"xi1.net158" 3.76671
"xi1.net169" 1.94666
"xi1.net174" 0.253953
"xi1.net176" 0.252751
"xi1.net184" 0.254408
"xi1.net199" 1.14592
"xi1.net207" 1.89747
"xi1.net211" 0.921754
"xi1.net215" 1.84349
"xi1.xi93.xl0.li0:1" -0.0147875
"xi1.xi93.xl0.li1:1" 0.0195572
"xi1.xi93.xl0.net4" -0.0975926
"xi1.xi93.xl0.net6" 0.0714255
"xi1.xi93.xl0.net9" 3.08806
"xi1.xi93.xl0.net10" 2.90868
"time" 7.39448e-09
"1" 3.04013
"2" 2.94389
"net15" 3.00000
"net21" 0.00000
"net23" 1.99988
"v2:p" -0.00477237
"v3:p" -4.44657e-08
"v9:p" -0.0122021
"vdd!" 5.00000
"xi1.net50" -0.00127966
"xi1.net86" 2.20319
"xi1.net116" 1.08149
"xi1.net151" 4.83031
"xi1.net157" 4.82567
"xi1.net158" 3.76668
"xi1.net169" 1.94796
"xi1.net174" 0.253976
"xi1.net176" 0.252816
"xi1.net184" 0.254432
"xi1.net199" 1.14595
"xi1.net207" 1.89592
"xi1.net211" 0.921759
"xi1.net215" 1.84350
"xi1.xi93.xl0.li0:1" -0.0147069
"xi1.xi93.xl0.li1:1" 0.0194792
"xi1.xi93.xl0.net4" -0.102072
"xi1.xi93.xl0.net6" 0.0762183
"xi1.xi93.xl0.net9" 3.09275
"xi1.xi93.xl0.net10" 2.90415
"time" 7.39611e-09
"1" 3.04769
"2" 2.93644
"net15" 3.00000
"net21" 0.00000
"net23" 1.99956
"v2:p" -0.00477643
"v3:p" -4.18412e-08
"v9:p" -0.0122004
"vdd!" 5.00000
"xi1.net50" -0.00121883
"xi1.net86" 2.20321
"xi1.net116" 1.08185
"xi1.net151" 4.83029
"xi1.net157" 4.82565
"xi1.net158" 3.76664
"xi1.net169" 1.94996
"xi1.net174" 0.254008
"xi1.net176" 0.252914
"xi1.net184" 0.254467
"xi1.net199" 1.14598
"xi1.net207" 1.89351
"xi1.net211" 0.921766
"xi1.net215" 1.84352
"xi1.xi93.xl0.li0:1" -0.0145736
"xi1.xi93.xl0.li1:1" 0.0193500
"xi1.xi93.xl0.net4" -0.109079
"xi1.xi93.xl0.net6" 0.0836049
"xi1.xi93.xl0.net9" 3.09997
"xi1.xi93.xl0.net10" 2.89707
"time" 7.39770e-09
"1" 3.05499
"2" 2.92912
"net15" 3.00000
"net21" 0.00000
"net23" 1.99924
"v2:p" -0.00478031
"v3:p" -4.15459e-08
"v9:p" -0.0121987
"vdd!" 5.00000
"xi1.net50" -0.00123023
"xi1.net86" 2.20322
"xi1.net116" 1.08233
"xi1.net151" 4.83026
"xi1.net157" 4.82563
"xi1.net158" 3.76660
"xi1.net169" 1.95190
"xi1.net174" 0.254036
"xi1.net176" 0.253007
"xi1.net184" 0.254498
"xi1.net199" 1.14601
"xi1.net207" 1.89118
"xi1.net211" 0.921773
"xi1.net215" 1.84353
"xi1.xi93.xl0.li0:1" -0.0144348
"xi1.xi93.xl0.li1:1" 0.0192151
"xi1.xi93.xl0.net4" -0.115942
"xi1.xi93.xl0.net6" 0.0907071
"xi1.xi93.xl0.net9" 3.10690
"xi1.xi93.xl0.net10" 2.89013
"time" 7.39927e-09
"1" 3.06211
"2" 2.92184
"net15" 3.00000
"net21" 0.00000
"net23" 1.99891
"v2:p" -0.00478423
"v3:p" -4.34548e-08
"v9:p" -0.0121969
"vdd!" 5.00000
"xi1.net50" -0.00131002
"xi1.net86" 2.20324
"xi1.net116" 1.08292
"xi1.net151" 4.83024
"xi1.net157" 4.82561
"xi1.net158" 3.76656
"xi1.net169" 1.95379
"xi1.net174" 0.254060
"xi1.net176" 0.253094
"xi1.net184" 0.254526
"xi1.net199" 1.14603
"xi1.net207" 1.88890
"xi1.net211" 0.921780
"xi1.net215" 1.84354
"xi1.xi93.xl0.li0:1" -0.0142890
"xi1.xi93.xl0.li1:1" 0.0190732
"xi1.xi93.xl0.net4" -0.122749
"xi1.xi93.xl0.net6" 0.0976254
"xi1.xi93.xl0.net9" 3.11364
"xi1.xi93.xl0.net10" 2.88324
"time" 7.40079e-09
"1" 3.06897
"2" 2.91469
"net15" 3.00000
"net21" 0.00000
"net23" 1.99858
"v2:p" -0.00478831
"v3:p" -4.74024e-08
"v9:p" -0.0121950
"vdd!" 5.00000
"xi1.net50" -0.00145256
"xi1.net86" 2.20325
"xi1.net116" 1.08361
"xi1.net151" 4.83022
"xi1.net157" 4.82559
"xi1.net158" 3.76652
"xi1.net169" 1.95562
"xi1.net174" 0.254081
"xi1.net176" 0.253176
"xi1.net184" 0.254548
"xi1.net199" 1.14604
"xi1.net207" 1.88669
"xi1.net211" 0.921786
"xi1.net215" 1.84356
"xi1.xi93.xl0.li0:1" -0.0141387
"xi1.xi93.xl0.li1:1" 0.0189270
"xi1.xi93.xl0.net4" -0.129405
"xi1.xi93.xl0.net6" 0.104271
"xi1.xi93.xl0.net9" 3.12011
"xi1.xi93.xl0.net10" 2.87650
"time" 7.40230e-09
"1" 3.07567
"2" 2.90759
"net15" 3.00000
"net21" 0.00000
"net23" 1.99824
"v2:p" -0.00479274
"v3:p" -5.32942e-08
"v9:p" -0.0121930
"vdd!" 5.00000
"xi1.net50" -0.00165503
"xi1.net86" 2.20327
"xi1.net116" 1.08440
"xi1.net151" 4.83021
"xi1.net157" 4.82557
"xi1.net158" 3.76649
"xi1.net169" 1.95742
"xi1.net174" 0.254097
"xi1.net176" 0.253253
"xi1.net184" 0.254567
"xi1.net199" 1.14605
"xi1.net207" 1.88453
"xi1.net211" 0.921792
"xi1.net215" 1.84357
"xi1.xi93.xl0.li0:1" -0.0139822
"xi1.xi93.xl0.li1:1" 0.0187750
"xi1.xi93.xl0.net4" -0.136002
"xi1.xi93.xl0.net6" 0.110746
"xi1.xi93.xl0.net9" 3.12639
"xi1.xi93.xl0.net10" 2.86982
"time" 7.40378e-09
"1" 3.08223
"2" 2.90051
"net15" 3.00000
"net21" 0.00000
"net23" 1.99790
"v2:p" -0.00479767
"v3:p" -6.10394e-08
"v9:p" -0.0121910
"vdd!" 5.00000
"xi1.net50" -0.00191457
"xi1.net86" 2.20328
"xi1.net116" 1.08528
"xi1.net151" 4.83019
"xi1.net157" 4.82555
"xi1.net158" 3.76645
"xi1.net169" 1.95919
"xi1.net174" 0.254110
"xi1.net176" 0.253326
"xi1.net184" 0.254582
"xi1.net199" 1.14605
"xi1.net207" 1.88240
"xi1.net211" 0.921799
"xi1.net215" 1.84358
"xi1.xi93.xl0.li0:1" -0.0138193
"xi1.xi93.xl0.li1:1" 0.0186170
"xi1.xi93.xl0.net4" -0.142555
"xi1.xi93.xl0.net6" 0.117071
"xi1.xi93.xl0.net9" 3.13253
"xi1.xi93.xl0.net10" 2.86318
"time" 7.40526e-09
"1" 3.08869
"2" 2.89343
"net15" 3.00000
"net21" 0.00000
"net23" 1.99756
"v2:p" -0.00480326
"v3:p" -7.05769e-08
"v9:p" -0.0121889
"vdd!" 5.00000
"xi1.net50" -0.00222921
"xi1.net86" 2.20330
"xi1.net116" 1.08626
"xi1.net151" 4.83017
"xi1.net157" 4.82554
"xi1.net158" 3.76642
"xi1.net169" 1.96094
"xi1.net174" 0.254119
"xi1.net176" 0.253395
"xi1.net184" 0.254594
"xi1.net199" 1.14605
"xi1.net207" 1.88030
"xi1.net211" 0.921805
"xi1.net215" 1.84359
"xi1.xi93.xl0.li0:1" -0.0136493
"xi1.xi93.xl0.li1:1" 0.0184526
"xi1.xi93.xl0.net4" -0.149090
"xi1.xi93.xl0.net6" 0.123279
"xi1.xi93.xl0.net9" 3.13854
"xi1.xi93.xl0.net10" 2.85655
"time" 7.40673e-09
"1" 3.09505
"2" 2.88633
"net15" 3.00000
"net21" 0.00000
"net23" 1.99721
"v2:p" -0.00480962
"v3:p" -8.18373e-08
"v9:p" -0.0121866
"vdd!" 5.00000
"xi1.net50" -0.00259672
"xi1.net86" 2.20332
"xi1.net116" 1.08735
"xi1.net151" 4.83016
"xi1.net157" 4.82552
"xi1.net158" 3.76640
"xi1.net169" 1.96268
"xi1.net174" 0.254125
"xi1.net176" 0.253461
"xi1.net184" 0.254602
"xi1.net199" 1.14604
"xi1.net207" 1.87823
"xi1.net211" 0.921811
"xi1.net215" 1.84361
"xi1.xi93.xl0.li0:1" -0.0134720
"xi1.xi93.xl0.li1:1" 0.0182816
"xi1.xi93.xl0.net4" -0.155615
"xi1.xi93.xl0.net6" 0.129381
"xi1.xi93.xl0.net9" 3.14443
"xi1.xi93.xl0.net10" 2.84994
"time" 7.40817e-09
"1" 3.10117
"2" 2.87939
"net15" 3.00000
"net21" 0.00000
"net23" 1.99687
"v2:p" -0.00481671
"v3:p" -9.44192e-08
"v9:p" -0.0121844
"vdd!" 5.00000
"xi1.net50" -0.00300417
"xi1.net86" 2.20335
"xi1.net116" 1.08850
"xi1.net151" 4.83015
"xi1.net157" 4.82551
"xi1.net158" 3.76638
"xi1.net169" 1.96437
"xi1.net174" 0.254128
"xi1.net176" 0.253521
"xi1.net184" 0.254606
"xi1.net199" 1.14604
"xi1.net207" 1.87623
"xi1.net211" 0.921818
"xi1.net215" 1.84362
"xi1.xi93.xl0.li0:1" -0.0132917
"xi1.xi93.xl0.li1:1" 0.0181084
"xi1.xi93.xl0.net4" -0.161977
"xi1.xi93.xl0.net6" 0.135243
"xi1.xi93.xl0.net9" 3.15009
"xi1.xi93.xl0.net10" 2.84348
"time" 7.40952e-09
"1" 3.10692
"2" 2.87279
"net15" 3.00000
"net21" 0.00000
"net23" 1.99655
"v2:p" -0.00482434
"v3:p" -1.07754e-07
"v9:p" -0.0121821
"vdd!" 5.00000
"xi1.net50" -0.00343345
"xi1.net86" 2.20337
"xi1.net116" 1.08969
"xi1.net151" 4.83014
"xi1.net157" 4.82550
"xi1.net158" 3.76636
"xi1.net169" 1.96596
"xi1.net174" 0.254128
"xi1.net176" 0.253577
"xi1.net184" 0.254608
"xi1.net199" 1.14602
"xi1.net207" 1.87435
"xi1.net211" 0.921824
"xi1.net215" 1.84363
"xi1.xi93.xl0.li0:1" -0.0131137
"xi1.xi93.xl0.li1:1" 0.0179381
"xi1.xi93.xl0.net4" -0.168013
"xi1.xi93.xl0.net6" 0.140730
"xi1.xi93.xl0.net9" 3.15538
"xi1.xi93.xl0.net10" 2.83736
"time" 7.41082e-09
"1" 3.11236
"2" 2.86645
"net15" 3.00000
"net21" 0.00000
"net23" 1.99623
"v2:p" -0.00483255
"v3:p" -1.21725e-07
"v9:p" -0.0121799
"vdd!" 5.00000
"xi1.net50" -0.00388113
"xi1.net86" 2.20339
"xi1.net116" 1.09090
"xi1.net151" 4.83013
"xi1.net157" 4.82549
"xi1.net158" 3.76634
"xi1.net169" 1.96748
"xi1.net174" 0.254125
"xi1.net176" 0.253627
"xi1.net184" 0.254607
"xi1.net199" 1.14601
"xi1.net207" 1.87256
"xi1.net211" 0.921830
"xi1.net215" 1.84365
"xi1.xi93.xl0.li0:1" -0.0129371
"xi1.xi93.xl0.li1:1" 0.0177696
"xi1.xi93.xl0.net4" -0.173786
"xi1.xi93.xl0.net6" 0.145914
"xi1.xi93.xl0.net9" 3.16037
"xi1.xi93.xl0.net10" 2.83150
"time" 7.41207e-09
"1" 3.11754
"2" 2.86035
"net15" 3.00000
"net21" 0.00000
"net23" 1.99593
"v2:p" -0.00484136
"v3:p" -1.36198e-07
"v9:p" -0.0121777
"vdd!" 5.00000
"xi1.net50" -0.00434318
"xi1.net86" 2.20341
"xi1.net116" 1.09215
"xi1.net151" 4.83012
"xi1.net157" 4.82548
"xi1.net158" 3.76633
"xi1.net169" 1.96895
"xi1.net174" 0.254121
"xi1.net176" 0.253673
"xi1.net184" 0.254603
"xi1.net199" 1.14599
"xi1.net207" 1.87086
"xi1.net211" 0.921836
"xi1.net215" 1.84366
"xi1.xi93.xl0.li0:1" -0.0127614
"xi1.xi93.xl0.li1:1" 0.0176028
"xi1.xi93.xl0.net4" -0.179326
"xi1.xi93.xl0.net6" 0.150834
"xi1.xi93.xl0.net9" 3.16509
"xi1.xi93.xl0.net10" 2.82587
"time" 7.41328e-09
"1" 3.12250
"2" 2.85444
"net15" 3.00000
"net21" 0.00000
"net23" 1.99564
"v2:p" -0.00485078
"v3:p" -1.51117e-07
"v9:p" -0.0121756
"vdd!" 5.00000
"xi1.net50" -0.00481790
"xi1.net86" 2.20343
"xi1.net116" 1.09342
"xi1.net151" 4.83012
"xi1.net157" 4.82547
"xi1.net158" 3.76632
"xi1.net169" 1.97036
"xi1.net174" 0.254114
"xi1.net176" 0.253715
"xi1.net184" 0.254598
"xi1.net199" 1.14597
"xi1.net207" 1.86923
"xi1.net211" 0.921842
"xi1.net215" 1.84367
"xi1.xi93.xl0.li0:1" -0.0125860
"xi1.xi93.xl0.li1:1" 0.0174368
"xi1.xi93.xl0.net4" -0.184677
"xi1.xi93.xl0.net6" 0.155537
"xi1.xi93.xl0.net9" 3.16961
"xi1.xi93.xl0.net10" 2.82044
"time" 7.41446e-09
"1" 3.12727
"2" 2.84870
"net15" 3.00000
"net21" 0.00000
"net23" 1.99536
"v2:p" -0.00486082
"v3:p" -1.66394e-07
"v9:p" -0.0121734
"vdd!" 5.00000
"xi1.net50" -0.00530263
"xi1.net86" 2.20345
"xi1.net116" 1.09472
"xi1.net151" 4.83011
"xi1.net157" 4.82547
"xi1.net158" 3.76631
"xi1.net169" 1.97174
"xi1.net174" 0.254107
"xi1.net176" 0.253755
"xi1.net184" 0.254591
"xi1.net199" 1.14595
"xi1.net207" 1.86767
"xi1.net211" 0.921847
"xi1.net215" 1.84368
"xi1.xi93.xl0.li0:1" -0.0124105
"xi1.xi93.xl0.li1:1" 0.0172714
"xi1.xi93.xl0.net4" -0.189856
"xi1.xi93.xl0.net6" 0.160048
"xi1.xi93.xl0.net9" 3.17393
"xi1.xi93.xl0.net10" 2.81517
"time" 7.41560e-09
"1" 3.13186
"2" 2.84312
"net15" 3.00000
"net21" 0.00000
"net23" 1.99509
"v2:p" -0.00487149
"v3:p" -1.81954e-07
"v9:p" -0.0121713
"vdd!" 5.00000
"xi1.net50" -0.00579513
"xi1.net86" 2.20348
"xi1.net116" 1.09605
"xi1.net151" 4.83011
"xi1.net157" 4.82546
"xi1.net158" 3.76630
"xi1.net169" 1.97308
"xi1.net174" 0.254097
"xi1.net176" 0.253791
"xi1.net184" 0.254582
"xi1.net199" 1.14593
"xi1.net207" 1.86616
"xi1.net211" 0.921853
"xi1.net215" 1.84369
"xi1.xi93.xl0.li0:1" -0.0122349
"xi1.xi93.xl0.li1:1" 0.0171063
"xi1.xi93.xl0.net4" -0.194880
"xi1.xi93.xl0.net6" 0.164389
"xi1.xi93.xl0.net9" 3.17808
"xi1.xi93.xl0.net10" 2.81006
"time" 7.41671e-09
"1" 3.13631
"2" 2.83768
"net15" 3.00000
"net21" 0.00000
"net23" 1.99482
"v2:p" -0.00488278
"v3:p" -1.97719e-07
"v9:p" -0.0121691
"vdd!" 5.00000
"xi1.net50" -0.00629299
"xi1.net86" 2.20350
"xi1.net116" 1.09740
"xi1.net151" 4.83011
"xi1.net157" 4.82546
"xi1.net158" 3.76630
"xi1.net169" 1.97439
"xi1.net174" 0.254086
"xi1.net176" 0.253824
"xi1.net184" 0.254571
"xi1.net199" 1.14591
"xi1.net207" 1.86471
"xi1.net211" 0.921859
"xi1.net215" 1.84371
"xi1.xi93.xl0.li0:1" -0.0120589
"xi1.xi93.xl0.li1:1" 0.0169417
"xi1.xi93.xl0.net4" -0.199758
"xi1.xi93.xl0.net6" 0.168573
"xi1.xi93.xl0.net9" 3.18207
"xi1.xi93.xl0.net10" 2.80510
"time" 7.41780e-09
"1" 3.14060
"2" 2.83238
"net15" 3.00000
"net21" 0.00000
"net23" 1.99456
"v2:p" -0.00489467
"v3:p" -2.13620e-07
"v9:p" -0.0121670
"vdd!" 5.00000
"xi1.net50" -0.00679404
"xi1.net86" 2.20352
"xi1.net116" 1.09878
"xi1.net151" 4.83010
"xi1.net157" 4.82546
"xi1.net158" 3.76630
"xi1.net169" 1.97567
"xi1.net174" 0.254074
"xi1.net176" 0.253855
"xi1.net184" 0.254560
"xi1.net199" 1.14589
"xi1.net207" 1.86330
"xi1.net211" 0.921864
"xi1.net215" 1.84372
"xi1.xi93.xl0.li0:1" -0.0118826
"xi1.xi93.xl0.li1:1" 0.0167773
"xi1.xi93.xl0.net4" -0.204499
"xi1.xi93.xl0.net6" 0.172614
"xi1.xi93.xl0.net9" 3.18593
"xi1.xi93.xl0.net10" 2.80028
"time" 7.41887e-09
"1" 3.14477
"2" 2.82721
"net15" 3.00000
"net21" 0.00000
"net23" 1.99431
"v2:p" -0.00490715
"v3:p" -2.29589e-07
"v9:p" -0.0121649
"vdd!" 5.00000
"xi1.net50" -0.00729625
"xi1.net86" 2.20354
"xi1.net116" 1.10017
"xi1.net151" 4.83010
"xi1.net157" 4.82546
"xi1.net158" 3.76630
"xi1.net169" 1.97692
"xi1.net174" 0.254061
"xi1.net176" 0.253883
"xi1.net184" 0.254547
"xi1.net199" 1.14586
"xi1.net207" 1.86195
"xi1.net211" 0.921870
"xi1.net215" 1.84373
"xi1.xi93.xl0.li0:1" -0.0117060
"xi1.xi93.xl0.li1:1" 0.0166131
"xi1.xi93.xl0.net4" -0.209110
"xi1.xi93.xl0.net6" 0.176522
"xi1.xi93.xl0.net9" 3.18965
"xi1.xi93.xl0.net10" 2.79558
"time" 7.41991e-09
"1" 3.14881
"2" 2.82216
"net15" 3.00000
"net21" 0.00000
"net23" 1.99407
"v2:p" -0.00492020
"v3:p" -2.45568e-07
"v9:p" -0.0121629
"vdd!" 5.00000
"xi1.net50" -0.00779777
"xi1.net86" 2.20356
"xi1.net116" 1.10157
"xi1.net151" 4.83010
"xi1.net157" 4.82546
"xi1.net158" 3.76630
"xi1.net169" 1.97816
"xi1.net174" 0.254046
"xi1.net176" 0.253908
"xi1.net184" 0.254532
"xi1.net199" 1.14583
"xi1.net207" 1.86064
"xi1.net211" 0.921875
"xi1.net215" 1.84374
"xi1.xi93.xl0.li0:1" -0.0115290
"xi1.xi93.xl0.li1:1" 0.0164492
"xi1.xi93.xl0.net4" -0.213597
"xi1.xi93.xl0.net6" 0.180308
"xi1.xi93.xl0.net9" 3.19325
"xi1.xi93.xl0.net10" 2.79101
"time" 7.42093e-09
"1" 3.15275
"2" 2.81723
"net15" 3.00000
"net21" 0.00000
"net23" 1.99383
"v2:p" -0.00493382
"v3:p" -2.61501e-07
"v9:p" -0.0121608
"vdd!" 5.00000
"xi1.net50" -0.00829692
"xi1.net86" 2.20359
"xi1.net116" 1.10299
"xi1.net151" 4.83010
"xi1.net157" 4.82545
"xi1.net158" 3.76630
"xi1.net169" 1.97937
"xi1.net174" 0.254031
"xi1.net176" 0.253931
"xi1.net184" 0.254516
"xi1.net199" 1.14581
"xi1.net207" 1.85937
"xi1.net211" 0.921881
"xi1.net215" 1.84375
"xi1.xi93.xl0.li0:1" -0.0113516
"xi1.xi93.xl0.li1:1" 0.0162854
"xi1.xi93.xl0.net4" -0.217966
"xi1.xi93.xl0.net6" 0.183981
"xi1.xi93.xl0.net9" 3.19674
"xi1.xi93.xl0.net10" 2.78656
"time" 7.42194e-09
"1" 3.15657
"2" 2.81241
"net15" 3.00000
"net21" 0.00000
"net23" 1.99360
"v2:p" -0.00494799
"v3:p" -2.77340e-07
"v9:p" -0.0121588
"vdd!" 5.00000
"xi1.net50" -0.00879218
"xi1.net86" 2.20361
"xi1.net116" 1.10443
"xi1.net151" 4.83011
"xi1.net157" 4.82546
"xi1.net158" 3.76631
"xi1.net169" 1.98057
"xi1.net174" 0.254014
"xi1.net176" 0.253951
"xi1.net184" 0.254499
"xi1.net199" 1.14578
"xi1.net207" 1.85815
"xi1.net211" 0.921886
"xi1.net215" 1.84376
"xi1.xi93.xl0.li0:1" -0.0111736
"xi1.xi93.xl0.li1:1" 0.0161216
"xi1.xi93.xl0.net4" -0.222222
"xi1.xi93.xl0.net6" 0.187550
"xi1.xi93.xl0.net9" 3.20013
"xi1.xi93.xl0.net10" 2.78223
"time" 7.42293e-09
"1" 3.16031
"2" 2.80770
"net15" 3.00000
"net21" 0.00000
"net23" 1.99337
"v2:p" -0.00496270
"v3:p" -2.93039e-07
"v9:p" -0.0121568
"vdd!" 5.00000
"xi1.net50" -0.00928215
"xi1.net86" 2.20363
"xi1.net116" 1.10587
"xi1.net151" 4.83011
"xi1.net157" 4.82546
"xi1.net158" 3.76631
"xi1.net169" 1.98175
"xi1.net174" 0.253996
"xi1.net176" 0.253969
"xi1.net184" 0.254481
"xi1.net199" 1.14574
"xi1.net207" 1.85696
"xi1.net211" 0.921892
"xi1.net215" 1.84377
"xi1.xi93.xl0.li0:1" -0.0109951
"xi1.xi93.xl0.li1:1" 0.0159578
"xi1.xi93.xl0.net4" -0.226370
"xi1.xi93.xl0.net6" 0.191023
"xi1.xi93.xl0.net9" 3.20342
"xi1.xi93.xl0.net10" 2.77800
"time" 7.42390e-09
"1" 3.16395
"2" 2.80309
"net15" 3.00000
"net21" 0.00000
"net23" 1.99315
"v2:p" -0.00497793
"v3:p" -3.08558e-07
"v9:p" -0.0121548
"vdd!" 5.00000
"xi1.net50" -0.00976558
"xi1.net86" 2.20365
"xi1.net116" 1.10732
"xi1.net151" 4.83011
"xi1.net157" 4.82546
"xi1.net158" 3.76632
"xi1.net169" 1.98292
"xi1.net174" 0.253976
"xi1.net176" 0.253984
"xi1.net184" 0.254462
"xi1.net199" 1.14571
"xi1.net207" 1.85581
"xi1.net211" 0.921897
"xi1.net215" 1.84378
"xi1.xi93.xl0.li0:1" -0.0108160
"xi1.xi93.xl0.li1:1" 0.0157939
"xi1.xi93.xl0.net4" -0.230417
"xi1.xi93.xl0.net6" 0.194408
"xi1.xi93.xl0.net9" 3.20662
"xi1.xi93.xl0.net10" 2.77387
"time" 7.42486e-09
"1" 3.16752
"2" 2.79857
"net15" 3.00000
"net21" 0.00000
"net23" 1.99294
"v2:p" -0.00499368
"v3:p" -3.23858e-07
"v9:p" -0.0121528
"vdd!" 5.00000
"xi1.net50" -0.0102413
"xi1.net86" 2.20368
"xi1.net116" 1.10878
"xi1.net151" 4.83012
"xi1.net157" 4.82546
"xi1.net158" 3.76633
"xi1.net169" 1.98407
"xi1.net174" 0.253956
"xi1.net176" 0.253996
"xi1.net184" 0.254441
"xi1.net199" 1.14568
"xi1.net207" 1.85470
"xi1.net211" 0.921902
"xi1.net215" 1.84379
"xi1.xi93.xl0.li0:1" -0.0106360
"xi1.xi93.xl0.li1:1" 0.0156296
"xi1.xi93.xl0.net4" -0.234367
"xi1.xi93.xl0.net6" 0.197712
"xi1.xi93.xl0.net9" 3.20974
"xi1.xi93.xl0.net10" 2.76984
"time" 7.42581e-09
"1" 3.17101
"2" 2.79414
"net15" 3.00000
"net21" 0.00000
"net23" 1.99273
"v2:p" -0.00500994
"v3:p" -3.38904e-07
"v9:p" -0.0121509
"vdd!" 5.00000
"xi1.net50" -0.0107082
"xi1.net86" 2.20370
"xi1.net116" 1.11025
"xi1.net151" 4.83012
"xi1.net157" 4.82546
"xi1.net158" 3.76634
"xi1.net169" 1.98522
"xi1.net174" 0.253934
"xi1.net176" 0.254006
"xi1.net184" 0.254419
"xi1.net199" 1.14564
"xi1.net207" 1.85362
"xi1.net211" 0.921908
"xi1.net215" 1.84380
"xi1.xi93.xl0.li0:1" -0.0104550
"xi1.xi93.xl0.li1:1" 0.0154650
"xi1.xi93.xl0.net4" -0.238224
"xi1.xi93.xl0.net6" 0.200944
"xi1.xi93.xl0.net9" 3.21279
"xi1.xi93.xl0.net10" 2.76590
"time" 7.42675e-09
"1" 3.17444
"2" 2.78980
"net15" 3.00000
"net21" 0.00000
"net23" 1.99253
"v2:p" -0.00502671
"v3:p" -3.53662e-07
"v9:p" -0.0121489
"vdd!" 5.00000
"xi1.net50" -0.0111652
"xi1.net86" 2.20372
"xi1.net116" 1.11172
"xi1.net151" 4.83012
"xi1.net157" 4.82547
"xi1.net158" 3.76635
"xi1.net169" 1.98636
"xi1.net174" 0.253911
"xi1.net176" 0.254013
"xi1.net184" 0.254395
"xi1.net199" 1.14560
"xi1.net207" 1.85257
"xi1.net211" 0.921913
"xi1.net215" 1.84381
"xi1.xi93.xl0.li0:1" -0.0102730
"xi1.xi93.xl0.li1:1" 0.0152997
"xi1.xi93.xl0.net4" -0.241994
"xi1.xi93.xl0.net6" 0.204109
"xi1.xi93.xl0.net9" 3.21578
"xi1.xi93.xl0.net10" 2.76205
"time" 7.42768e-09
"1" 3.17781
"2" 2.78553
"net15" 3.00000
"net21" 0.00000
"net23" 1.99233
"v2:p" -0.00504398
"v3:p" -3.68101e-07
"v9:p" -0.0121470
"vdd!" 5.00000
"xi1.net50" -0.0116114
"xi1.net86" 2.20375
"xi1.net116" 1.11320
"xi1.net151" 4.83013
"xi1.net157" 4.82547
"xi1.net158" 3.76636
"xi1.net169" 1.98749
"xi1.net174" 0.253887
"xi1.net176" 0.254018
"xi1.net184" 0.254370
"xi1.net199" 1.14556
"xi1.net207" 1.85155
"xi1.net211" 0.921918
"xi1.net215" 1.84382
"xi1.xi93.xl0.li0:1" -0.0100897
"xi1.xi93.xl0.li1:1" 0.0151337
"xi1.xi93.xl0.net4" -0.245681
"xi1.xi93.xl0.net6" 0.207215
"xi1.xi93.xl0.net9" 3.21870
"xi1.xi93.xl0.net10" 2.75828
"time" 7.42861e-09
"1" 3.18113
"2" 2.78135
"net15" 3.00000
"net21" 0.00000
"net23" 1.99213
"v2:p" -0.00506176
"v3:p" -3.82187e-07
"v9:p" -0.0121451
"vdd!" 5.00000
"xi1.net50" -0.0120457
"xi1.net86" 2.20377
"xi1.net116" 1.11469
"xi1.net151" 4.83014
"xi1.net157" 4.82548
"xi1.net158" 3.76637
"xi1.net169" 1.98862
"xi1.net174" 0.253861
"xi1.net176" 0.254020
"xi1.net184" 0.254344
"xi1.net199" 1.14552
"xi1.net207" 1.85056
"xi1.net211" 0.921923
"xi1.net215" 1.84383
"xi1.xi93.xl0.li0:1" -0.00990494
"xi1.xi93.xl0.li1:1" 0.0149667
"xi1.xi93.xl0.net4" -0.249288
"xi1.xi93.xl0.net6" 0.210268
"xi1.xi93.xl0.net9" 3.22157
"xi1.xi93.xl0.net10" 2.75459
"time" 7.42952e-09
"1" 3.18441
"2" 2.77723
"net15" 3.00000
"net21" 0.00000
"net23" 1.99194
"v2:p" -0.00508004
"v3:p" -3.95890e-07
"v9:p" -0.0121432
"vdd!" 5.00000
"xi1.net50" -0.0124671
"xi1.net86" 2.20379
"xi1.net116" 1.11619
"xi1.net151" 4.83014
"xi1.net157" 4.82548
"xi1.net158" 3.76638
"xi1.net169" 1.98975
"xi1.net174" 0.253834
"xi1.net176" 0.254019
"xi1.net184" 0.254316
"xi1.net199" 1.14548
"xi1.net207" 1.84960
"xi1.net211" 0.921929
"xi1.net215" 1.84384
"xi1.xi93.xl0.li0:1" -0.00971851
"xi1.xi93.xl0.li1:1" 0.0147985
"xi1.xi93.xl0.net4" -0.252821
"xi1.xi93.xl0.net6" 0.213274
"xi1.xi93.xl0.net9" 3.22439
"xi1.xi93.xl0.net10" 2.75097
"time" 7.43044e-09
"1" 3.18765
"2" 2.77317
"net15" 3.00000
"net21" 0.00000
"net23" 1.99176
"v2:p" -0.00509883
"v3:p" -4.09176e-07
"v9:p" -0.0121413
"vdd!" 5.00000
"xi1.net50" -0.0128747
"xi1.net86" 2.20382
"xi1.net116" 1.11769
"xi1.net151" 4.83015
"xi1.net157" 4.82549
"xi1.net158" 3.76640
"xi1.net169" 1.99088
"xi1.net174" 0.253806
"xi1.net176" 0.254015
"xi1.net184" 0.254287
"xi1.net199" 1.14544
"xi1.net207" 1.84867
"xi1.net211" 0.921934
"xi1.net215" 1.84385
"xi1.xi93.xl0.li0:1" -0.00953017
"xi1.xi93.xl0.li1:1" 0.0146290
"xi1.xi93.xl0.net4" -0.256282
"xi1.xi93.xl0.net6" 0.216239
"xi1.xi93.xl0.net9" 3.22717
"xi1.xi93.xl0.net10" 2.74743
"time" 7.43135e-09
"1" 3.19085
"2" 2.76918
"net15" 3.00000
"net21" 0.00000
"net23" 1.99158
"v2:p" -0.00511813
"v3:p" -4.22013e-07
"v9:p" -0.0121394
"vdd!" 5.00000
"xi1.net50" -0.0132674
"xi1.net86" 2.20384
"xi1.net116" 1.11920
"xi1.net151" 4.83016
"xi1.net157" 4.82549
"xi1.net158" 3.76642
"xi1.net169" 1.99202
"xi1.net174" 0.253776
"xi1.net176" 0.254009
"xi1.net184" 0.254256
"xi1.net199" 1.14539
"xi1.net207" 1.84776
"xi1.net211" 0.921939
"xi1.net215" 1.84387
"xi1.xi93.xl0.li0:1" -0.00933970
"xi1.xi93.xl0.li1:1" 0.0144578
"xi1.xi93.xl0.net4" -0.259675
"xi1.xi93.xl0.net6" 0.219169
"xi1.xi93.xl0.net9" 3.22991
"xi1.xi93.xl0.net10" 2.74395
"time" 7.43226e-09
"1" 3.19404
"2" 2.76525
"net15" 3.00000
"net21" 0.00000
"net23" 1.99140
"v2:p" -0.00513795
"v3:p" -4.34365e-07
"v9:p" -0.0121375
"vdd!" 5.00000
"xi1.net50" -0.0136441
"xi1.net86" 2.20387
"xi1.net116" 1.12072
"xi1.net151" 4.83017
"xi1.net157" 4.82550
"xi1.net158" 3.76643
"xi1.net169" 1.99315
"xi1.net174" 0.253744
"xi1.net176" 0.254000
"xi1.net184" 0.254224
"xi1.net199" 1.14534
"xi1.net207" 1.84688
"xi1.net211" 0.921945
"xi1.net215" 1.84388
"xi1.xi93.xl0.li0:1" -0.00914683
"xi1.xi93.xl0.li1:1" 0.0142848
"xi1.xi93.xl0.net4" -0.263003
"xi1.xi93.xl0.net6" 0.222070
"xi1.xi93.xl0.net9" 3.23263
"xi1.xi93.xl0.net10" 2.74054
"time" 7.43318e-09
"1" 3.19720
"2" 2.76137
"net15" 3.00000
"net21" 0.00000
"net23" 1.99123
"v2:p" -0.00515829
"v3:p" -4.46195e-07
"v9:p" -0.0121356
"vdd!" 5.00000
"xi1.net50" -0.0140036
"xi1.net86" 2.20389
"xi1.net116" 1.12224
"xi1.net151" 4.83018
"xi1.net157" 4.82551
"xi1.net158" 3.76645
"xi1.net169" 1.99430
"xi1.net174" 0.253711
"xi1.net176" 0.253988
"xi1.net184" 0.254190
"xi1.net199" 1.14529
"xi1.net207" 1.84602