HEADER
"PSFversion" "1.00"
"Log Generator" "drlLog rev. 1.0"
"Log Time Stamp" "Sat Oct 22 16:32:23 2011"
"simulator" "spectre"
"version" "10.1.1.164.isr11"
"date" "4:32:23 PM, Sat Oct 22, 2011"
"design" "(no title)"
"signalNameType" "spectre"
"measdgt" 0
"ingold" 2
"sst2usecolon" 0
TYPE
"analysisInst" STRUCT(
"analysisType" STRING *
"dataFile" STRING *
"format" STRING *
"parent" STRING *
"sweepVariable" ARRAY ( * ) STRING *
"description" STRING *
)
VALUE
"dc1-dc" "analysisInst" (
"dc"
"dc1.dc"
"PSF"
""
("vdc1")
"DC Analysis `dc1': vdc1 = (1 -> 9)"
) PROP(
"data_type" "scalar"
)

END
