HEADER
"PSFversion" "1.00"
"simulator" "eldoD"
"date" "17-Oct-2007 17:26:20"
"netlistDir" "../netlist"
TYPE
"runObject" STRUCT(
"logName" ARRAY ( * ) STRING *
"parent" STRING *
"sweepVariable" ARRAY ( * ) STRING *
) PROP(
"key" "runObject"
)
VALUE
"Root" "runObject" (
("")
""
("VDC1")
)

"VDC1=0" "runObject" (
("")
"Root"
("VDC2")
) PROP (
"VDC1" 0.000000e+00
)

"VDC1=0,VDC2=0/psf" "runObject" (
(
"../VDC1=0,VDC2=0/psf/logFile"
"../VDC1=0,VDC2=0/psf/artistLogFile"
)
"VDC1=0"
()
) PROP (
"netlistDir" "../netlist"
"dataDir" "../VDC1=0,VDC2=0"
"VDC2" 0.000000e+00
)

"VDC1=0,VDC2=1/psf" "runObject" (
(
"../VDC1=0,VDC2=1/psf/logFile"
"../VDC1=0,VDC2=1/psf/artistLogFile"
)
"VDC1=0"
()
) PROP (
"netlistDir" "../netlist"
"dataDir" "../VDC1=0,VDC2=1"
"VDC2" 1.000000e+00
)

"VDC1=0,VDC2=2/psf" "runObject" (
(
"../VDC1=0,VDC2=2/psf/logFile"
"../VDC1=0,VDC2=2/psf/artistLogFile"
)
"VDC1=0"
()
) PROP (
"netlistDir" "../netlist"
"dataDir" "../VDC1=0,VDC2=2"
"VDC2" 2.000000e+00
)

"VDC1=1" "runObject" (
("")
"Root"
("VDC2")
) PROP (
"VDC1" 1.000000e+00
)

"VDC1=1,VDC2=0/psf" "runObject" (
(
"../VDC1=1,VDC2=0/psf/logFile"
"../VDC1=1,VDC2=0/psf/artistLogFile"
)
"VDC1=1"
()
) PROP (
"netlistDir" "../netlist"
"dataDir" "../VDC1=1,VDC2=0"
"VDC2" 0.000000e+00
)

"VDC1=1,VDC2=1/psf" "runObject" (
(
"../VDC1=1,VDC2=1/psf/logFile"
"../VDC1=1,VDC2=1/psf/artistLogFile"
)
"VDC1=1"
()
) PROP (
"netlistDir" "../netlist"
"dataDir" "../VDC1=1,VDC2=1"
"VDC2" 1.000000e+00
)

"VDC1=1,VDC2=2/psf" "runObject" (
(
"../VDC1=1,VDC2=2/psf/logFile"
"../VDC1=1,VDC2=2/psf/artistLogFile"
)
"VDC1=1"
()
) PROP (
"netlistDir" "../netlist"
"dataDir" "../VDC1=1,VDC2=2"
"VDC2" 2.000000e+00
)

"VDC1=2" "runObject" (
("")
"Root"
("VDC2")
) PROP (
"VDC1" 2.000000e+00
)

"VDC1=2,VDC2=0/psf" "runObject" (
(
"../VDC1=2,VDC2=0/psf/logFile"
"../VDC1=2,VDC2=0/psf/artistLogFile"
)
"VDC1=2"
()
) PROP (
"netlistDir" "../netlist"
"dataDir" "../VDC1=2,VDC2=0"
"VDC2" 0.000000e+00
)

"VDC1=2,VDC2=1/psf" "runObject" (
(
"../VDC1=2,VDC2=1/psf/logFile"
"../VDC1=2,VDC2=1/psf/artistLogFile"
)
"VDC1=2"
()
) PROP (
"netlistDir" "../netlist"
"dataDir" "../VDC1=2,VDC2=1"
"VDC2" 1.000000e+00
)

"VDC1=2,VDC2=2/psf" "runObject" (
(
"../VDC1=2,VDC2=2/psf/logFile"
"../VDC1=2,VDC2=2/psf/artistLogFile"
)
"VDC1=2"
()
) PROP (
"netlistDir" "../netlist"
"dataDir" "../VDC1=2,VDC2=2"
"VDC2" 2.000000e+00
)
END
