HEADER
"PSFversion" "1.00"
"simulator" "spectre"
"version" "5.0.33.071304"
"date" "2:30:26 PM, Thur Sep 27, 2007"
"design" "// Generated for: spectre"
"analysis type" "info"
"analysis name" "dcOpInfo"
"analysis description" "Circuit Information"
"tolerance.relative" 0.00100000
"AnalysisName" "DC"
"AnalysisType" "dcOp"
"OpPointTemp.Value" 27.0000
"OpPointTemp.Units" "C"
TYPE
"bjt" STRUCT(
"vbe" FLOAT DOUBLE PROP(
"units" "V"
"description" "Base-emitter voltage"
)
"vbc" FLOAT DOUBLE PROP(
"units" "V"
"description" "Base-collector voltage"
)
"vce" FLOAT DOUBLE PROP(
"units" "V"
"description" "Collector-emitter voltage"
)
"vsub" FLOAT DOUBLE PROP(
"units" "V"
"description" "Substrate junction voltage"
)
"ic" FLOAT DOUBLE PROP(
"units" "A"
"description" "Resistive collector current"
)
"ib" FLOAT DOUBLE PROP(
"units" "A"
"description" "Resistive base current"
)
"isub" FLOAT DOUBLE PROP(
"units" "A"
"description" "Resistive substrate current"
)
"pwr" FLOAT DOUBLE PROP(
"units" "W"
"description" "Power dissipation"
)
"betadc" FLOAT DOUBLE PROP(
"units" "A/A"
"description" "Ratio of resistive collector current to resistive base current"
)
"betaac" FLOAT DOUBLE PROP(
"units" "A/A"
"description" "Small-signal common-emitter current gain"
)
"gm" FLOAT DOUBLE PROP(
"units" "S"
"description" "Common-emitter transconductance"
)
"rpi" FLOAT DOUBLE PROP(
"units" "Ohm"
"description" "Common-emitter input resistance"
)
"ro" FLOAT DOUBLE PROP(
"units" "Ohm"
"description" "Common-emitter output resistance"
)
"rb" FLOAT DOUBLE PROP(
"units" "Ohm"
"description" "Parasitic base resistance"
)
"rc" FLOAT DOUBLE PROP(
"units" "Ohm"
"description" "Parasitic collector resistance"
)
"cpi" FLOAT DOUBLE PROP(
"units" "F"
"description" "Common-emitter input capacitance"
)
"cmu" FLOAT DOUBLE PROP(
"units" "F"
"description" "Common-base output capacitance"
)
"cmux" FLOAT DOUBLE PROP(
"units" "F"
"description" "External common-base output capacitance"
)
"csub" FLOAT DOUBLE PROP(
"units" "F"
"description" "Substrate capacitance"
)
"ft" FLOAT DOUBLE PROP(
"units" "Hz"
"description" "Unity small-signal current-gain frequency"
)
"region" INT BYTE PROP(
"description" "Estimated operating region. Spectre outputs number (0-4) in a rawfile"
)
"type" INT BYTE PROP(
"description" "Transistor type"
)
"struct" INT BYTE PROP(
"description" "Transistor structure. For pnp default=lateral"
)
) PROP(
"key" "inst"
)
"capacitor" STRUCT(
"cap" FLOAT DOUBLE PROP(
"units" "F"
"description" "Capacitance at operating point"
)
) PROP(
"key" "inst"
)
"cvar" STRUCT(
"vtpar" FLOAT DOUBLE PROP(
"units" ""
"description" ""
)
"Vab" FLOAT DOUBLE PROP(
"units" ""
"description" ""
)
"Dv" FLOAT DOUBLE PROP(
"units" ""
"description" ""
)
"Vab2" FLOAT DOUBLE PROP(
"units" ""
"description" ""
)
"hyp1" FLOAT DOUBLE PROP(
"units" ""
"description" ""
)
"hyp2" FLOAT DOUBLE PROP(
"units" ""
"description" ""
)
"charge" FLOAT DOUBLE PROP(
"units" ""
"description" ""
)
"charge2" FLOAT DOUBLE PROP(
"units" ""
"description" ""
)
"cap" FLOAT DOUBLE PROP(
"units" ""
"description" ""
)
) PROP(
"key" "inst"
)
"isource" STRUCT(
"i" FLOAT DOUBLE PROP(
"units" "A"
"description" "Current through the source"
)
"v" FLOAT DOUBLE PROP(
"units" "V"
"description" "Voltage across the source"
)
"pwr" FLOAT DOUBLE PROP(
"units" "W"
"description" "Power dissipation"
)
) PROP(
"key" "inst"
)
"juncap" STRUCT(
"g" FLOAT DOUBLE PROP(
"units" "S"
"description" "Total differential conductance"
)
"c" FLOAT DOUBLE PROP(
"units" "F"
"description" "Total capacitance"
)
) PROP(
"key" "inst"
)
"mos903" STRUCT(
"ide" FLOAT DOUBLE PROP(
"units" "A"
"description" "Resistive drain current"
)
"ige" FLOAT DOUBLE PROP(
"units" "A"
"description" "Resistive gate current"
)
"ise" FLOAT DOUBLE PROP(
"units" "A"
"description" "Resistive source current"
)
"ibe" FLOAT DOUBLE PROP(
"units" "A"
"description" "Resistive bulk current"
)
"vds" FLOAT DOUBLE PROP(
"units" "V"
"description" "Drain-source voltage"
)
"vgs" FLOAT DOUBLE PROP(
"units" "V"
"description" "Gate-source voltage"
)
"vsb" FLOAT DOUBLE PROP(
"units" "V"
"description" "Source-bulk voltage"
)
"ids" FLOAT DOUBLE PROP(
"units" "A"
"description" "Resistive drain-source current"
)
"idb" FLOAT DOUBLE PROP(
"units" "A"
"description" "Resistive drain-bulk current"
)
"isb" FLOAT DOUBLE PROP(
"units" "A"
"description" "Resistive source-bulk current"
)
"iavl" FLOAT DOUBLE PROP(
"units" "A"
"description" "Substrate current"
)
"pwr" FLOAT DOUBLE PROP(
"units" "W"
"description" "Power"
)
"vt1" FLOAT DOUBLE PROP(
"units" "V"
"description" "`Vto' including backbias effects"
)
"vgt2" FLOAT DOUBLE PROP(
"units" "V"
"description" "Effective gate drive including backbias and drain effects"
)
"vdss1" FLOAT DOUBLE PROP(
"units" "V"
"description" "Saturation voltage at actual bias"
)
"vsat" FLOAT DOUBLE PROP(
"units" "V"
"description" "Saturation limit"
)
"gm" FLOAT DOUBLE PROP(
"units" "S"
"description" "Transconductance (d ids / d vgs)"
)
"gmb" FLOAT DOUBLE PROP(
"units" "S"
"description" "Bulk transconductance (d ids / d vbs)"
)
"gds" FLOAT DOUBLE PROP(
"units" "S"
"description" "Output conductance (d ids / d vds)"
)
"cdd" FLOAT DOUBLE PROP(
"units" "F"
"description" "Capacitance (d qd / d vd)"
)
"cdg" FLOAT DOUBLE PROP(
"units" "F"
"description" "Capacitance (- d qd / d vg)"
)
"cds" FLOAT DOUBLE PROP(
"units" "F"
"description" "Capacitance (- d qd / d vs)"
)
"cdb" FLOAT DOUBLE PROP(
"units" "F"
"description" "Capacitance (- d qd / d vb)"
)
"cgd" FLOAT DOUBLE PROP(
"units" "F"
"description" "Capacitance (- d qg / d vd)"
)
"cgg" FLOAT DOUBLE PROP(
"units" "F"
"description" "Capacitance (d qg / d vg)"
)
"cgs" FLOAT DOUBLE PROP(
"units" "F"
"description" "Capacitance (- d qg / d vs)"
)
"cgb" FLOAT DOUBLE PROP(
"units" "F"
"description" "Capacitance (- d qg / d vb)"
)
"csd" FLOAT DOUBLE PROP(
"units" "F"
"description" "Capacitance (- d qs / d vd)"
)
"csg" FLOAT DOUBLE PROP(
"units" "F"
"description" "Capacitance (- d qs / d vg)"
)
"css" FLOAT DOUBLE PROP(
"units" "F"
"description" "Capacitance (d qs / d vs)"
)
"csb" FLOAT DOUBLE PROP(
"units" "F"
"description" "Capacitance (- d qs / d vb)"
)
"cbd" FLOAT DOUBLE PROP(
"units" "F"
"description" "Capacitance (- d qb / d vd)"
)
"cbg" FLOAT DOUBLE PROP(
"units" "F"
"description" "Capacitance (- d qb / d vg)"
)
"cbs" FLOAT DOUBLE PROP(
"units" "F"
"description" "Capacitance (- d qb / d vs)"
)
"cbb" FLOAT DOUBLE PROP(
"units" "F"
"description" "Capacitance (d qb / d vb)"
)
"u" FLOAT DOUBLE PROP(
"description" "Transistor gain (gm/gds)"
)
"rout" FLOAT DOUBLE PROP(
"units" "Ohm"
"description" "Small signal output resistance (1/gds)"
)
"vearly" FLOAT DOUBLE PROP(
"units" "V"
"description" "Equivalent Early voltage (|id|/gds)"
)
"keff" FLOAT DOUBLE PROP(
"units" "sqrt(V)"
"description" "Describes body effect at actual bias"
)
"beff" FLOAT DOUBLE PROP(
"units" "S/V"
"description" "Effective beta at actual bias in the simple MOS model (2*|ids|/vgt2^2)"
)
"fug" FLOAT DOUBLE PROP(
"units" "Hz"
"description" "Unity gain frequency at actual bias (gm/(2*pi*cin))"
)
"sqrtsfw" FLOAT DOUBLE PROP(
"units" "V/sqrt(Hz)"
"description" "Input-referred RMS white noise voltage (sqrt(sth)/gm)"
)
"sqrtsff" FLOAT DOUBLE PROP(
"units" "V/sqrt(Hz)"
"description" "Input-referred RMS 1/f noise voltage at 1kHz (sqrt(nf/1000))"
)
"fknee" FLOAT DOUBLE PROP(
"units" "Hz"
"description" "Cross-over frequency above which white noise is dominant"
)
) PROP(
"key" "inst"
)
"pcccs" STRUCT(
"i" FLOAT DOUBLE PROP(
"units" "A"
"description" "Output current"
)
"v" FLOAT DOUBLE PROP(
"units" "V"
"description" "Output voltage"
)
"pwr" FLOAT DOUBLE PROP(
"units" "W"
"description" "Power dissipation"
)
) PROP(
"key" "inst"
)
"resistor" STRUCT(
"v" FLOAT DOUBLE PROP(
"units" "V"
"description" "Voltage at operating point"
)
"i" FLOAT DOUBLE PROP(
"units" "A"
"description" "Current through the resistor"
)
"res" FLOAT DOUBLE PROP(
"units" "Ohm"
"description" "Resistance at op point"
)
"pwr" FLOAT DOUBLE PROP(
"units" "W"
"description" "Power dissipation"
)
) PROP(
"key" "inst"
)
"rvarn" STRUCT(
"Va1" FLOAT DOUBLE PROP(
"units" ""
"description" ""
)
"V1b" FLOAT DOUBLE PROP(
"units" ""
"description" ""
)
"V1p" FLOAT DOUBLE PROP(
"units" ""
"description" ""
)
"Vap" FLOAT DOUBLE PROP(
"units" ""
"description" ""
)
"Vbp" FLOAT DOUBLE PROP(
"units" ""
"description" ""
)
"Vab" FLOAT DOUBLE PROP(
"units" ""
"description" ""
)
"Iab" FLOAT DOUBLE PROP(
"units" ""
"description" ""
)
"res" FLOAT DOUBLE PROP(
"units" ""
"description" ""
)
) PROP(
"key" "inst"
)
"rvarp" STRUCT(
"Va1" FLOAT DOUBLE PROP(
"units" ""
"description" ""
)
"V1b" FLOAT DOUBLE PROP(
"units" ""
"description" ""
)
"Vn1" FLOAT DOUBLE PROP(
"units" ""
"description" ""
)
"Vna" FLOAT DOUBLE PROP(
"units" ""
"description" ""
)
"Vnb" FLOAT DOUBLE PROP(
"units" ""
"description" ""
)
"Vab" FLOAT DOUBLE PROP(
"units" ""
"description" ""
)
"Iab" FLOAT DOUBLE PROP(
"units" ""
"description" ""
)
"res" FLOAT DOUBLE PROP(
"units" ""
"description" ""
)
) PROP(
"key" "inst"
)
"vcvs" STRUCT(
"i" FLOAT DOUBLE PROP(
"units" "A"
"description" "Output current"
)
"v" FLOAT DOUBLE PROP(
"units" "V"
"description" "Output voltage"
)
"pwr" FLOAT DOUBLE PROP(
"units" "W"
"description" "Power dissipation"
)
) PROP(
"key" "inst"
)
"vsource" STRUCT(
"v" FLOAT DOUBLE PROP(
"units" "V"
"description" "Voltage across the source"
)
"i" FLOAT DOUBLE PROP(
"units" "A"
"description" "Current through the source"
)
"pwr" FLOAT DOUBLE PROP(
"units" "W"
"description" "Power dissipation"
)
) PROP(
"key" "inst"
)
VALUE
"IREG21U_0.MP5.b1" "bjt" (
-0.698160
0.00000
-0.698160
-1.61626e-07
-1.61626e-05
-3.37023e-06
-0.00000
1.36370e-05
4.79570
4.77188
0.000616778
7734.63
5.82950e+06
16.6800
0.0100000
4.57140e-13
1.52504e-14
5.63492e-14
0.00000
1.85707e+08
1
1
0
) PROP(
"model" "IREG21U_0.MP5.vpnp1"
)
"IREG21U_0.R2.c3" "capacitor" (
2.20825e-15
) PROP(
"model" "capacitor"
)
"IREG21U_0.R2.c2" "capacitor" (
2.20825e-15
) PROP(
"model" "capacitor"
)
"IREG21U_0.R2.c1" "capacitor" (
2.20825e-15
) PROP(
"model" "capacitor"
)
"IREG21U_0.R15.c3" "capacitor" (
8.19008e-14
) PROP(
"model" "capacitor"
)
"IREG21U_0.R15.c2" "capacitor" (
8.19008e-14
) PROP(
"model" "capacitor"
)
"IREG21U_0.R15.c1" "capacitor" (
8.19008e-14
) PROP(
"model" "capacitor"
)
"IREG21U_0.R3.c3" "capacitor" (
3.42927e-16
) PROP(
"model" "capacitor"
)
"IREG21U_0.R3.c2" "capacitor" (
3.42927e-16
) PROP(
"model" "capacitor"
)
"IREG21U_0.R3.c1" "capacitor" (
3.42927e-16
) PROP(
"model" "capacitor"
)
"IREG21U_0.R4.c3" "capacitor" (
3.42927e-16
) PROP(
"model" "capacitor"
)
"IREG21U_0.R4.c2" "capacitor" (
3.42927e-16
) PROP(
"model" "capacitor"
)
"IREG21U_0.R4.c1" "capacitor" (
3.42927e-16
) PROP(
"model" "capacitor"
)
"IREG21U_0.R20.c3" "capacitor" (
2.20825e-15
) PROP(
"model" "capacitor"
)
"IREG21U_0.R20.c2" "capacitor" (
2.20825e-15
) PROP(
"model" "capacitor"
)
"IREG21U_0.R20.c1" "capacitor" (
2.20825e-15
) PROP(
"model" "capacitor"
)
"IREG21U_0.R19.c3" "capacitor" (
2.20825e-15
) PROP(
"model" "capacitor"
)
"IREG21U_0.R19.c2" "capacitor" (
2.20825e-15
) PROP(
"model" "capacitor"
)
"IREG21U_0.R19.c1" "capacitor" (
2.20825e-15
) PROP(
"model" "capacitor"
)
"C0" "capacitor" (
5.00000e-14
) PROP(
"model" "capacitor"
)
"C3" "capacitor" (
2.50000e-14
) PROP(
"model" "capacitor"
)
"C1" "capacitor" (
2.50000e-14
) PROP(
"model" "capacitor"
)
"C4" "capacitor" (
2.50000e-14
) PROP(
"model" "capacitor"
)
"C7" "capacitor" (
2.50000e-14
) PROP(
"model" "capacitor"
)
"C6" "capacitor" (
2.50000e-14
) PROP(
"model" "capacitor"
)
"C10" "capacitor" (
1.00000e-12
) PROP(
"model" "capacitor"
)
"C2" "capacitor" (
2.50000e-14
) PROP(
"model" "capacitor"
)
"C5" "capacitor" (
2.50000e-14
) PROP(
"model" "capacitor"
)
"C8" "capacitor" (
2.50000e-15
) PROP(
"model" "capacitor"
)
"C9" "capacitor" (
2.50000e-15
) PROP(
"model" "capacitor"
)
"DACTOP_0.FEIQV2I_0.R2.c3" "capacitor" (
8.78090e-16
) PROP(
"model" "capacitor"
)
"DACTOP_0.FEIQV2I_0.R2.c2" "capacitor" (
8.78090e-16
) PROP(
"model" "capacitor"
)
"DACTOP_0.FEIQV2I_0.R2.c1" "capacitor" (
8.78090e-16
) PROP(
"model" "capacitor"
)
"DACTOP_0.FEIQV2I_0.R0.c3" "capacitor" (
8.78090e-16
) PROP(
"model" "capacitor"
)
"DACTOP_0.FEIQV2I_0.R0.c2" "capacitor" (
8.78090e-16
) PROP(
"model" "capacitor"
)
"DACTOP_0.FEIQV2I_0.R0.c1" "capacitor" (
8.78090e-16
) PROP(
"model" "capacitor"
)
"DACTOP_0.FEIQV2I_0.R6.c3" "capacitor" (
8.78090e-16
) PROP(
"model" "capacitor"
)
"DACTOP_0.FEIQV2I_0.R6.c2" "capacitor" (
8.78090e-16
) PROP(
"model" "capacitor"
)
"DACTOP_0.FEIQV2I_0.R6.c1" "capacitor" (
8.78090e-16
) PROP(
"model" "capacitor"
)
"DACTOP_0.FEIQV2I_0.R5.c3" "capacitor" (
8.78090e-16
) PROP(
"model" "capacitor"
)
"DACTOP_0.FEIQV2I_0.R5.c2" "capacitor" (
8.78090e-16
) PROP(
"model" "capacitor"
)
"DACTOP_0.FEIQV2I_0.R5.c1" "capacitor" (
8.78090e-16
) PROP(
"model" "capacitor"
)
"DACTOP_0.FEIQV2I_0.R4.c3" "capacitor" (
8.78090e-16
) PROP(
"model" "capacitor"
)
"DACTOP_0.FEIQV2I_0.R4.c2" "capacitor" (
8.78090e-16
) PROP(
"model" "capacitor"
)
"DACTOP_0.FEIQV2I_0.R4.c1" "capacitor" (
8.78090e-16
) PROP(
"model" "capacitor"
)
"DACTOP_0.FEIQV2I_0.R3.c3" "capacitor" (
8.78090e-16
) PROP(
"model" "capacitor"
)
"DACTOP_0.FEIQV2I_0.R3.c2" "capacitor" (
8.78090e-16
) PROP(
"model" "capacitor"
)
"DACTOP_0.FEIQV2I_0.R3.c1" "capacitor" (
8.78090e-16
) PROP(
"model" "capacitor"
)
"DACTOP_0.DAC5UBIAS_0.R3.c3" "capacitor" (
1.84937e-14
) PROP(
"model" "capacitor"
)
"DACTOP_0.DAC5UBIAS_0.R3.c2" "capacitor" (
1.84937e-14
) PROP(
"model" "capacitor"
)
"DACTOP_0.DAC5UBIAS_0.R3.c1" "capacitor" (
1.84937e-14
) PROP(
"model" "capacitor"
)
"DACTOP_0.TSW.R0.c3" "capacitor" (
3.16062e-16
) PROP(
"model" "capacitor"
)
"DACTOP_0.TSW.R0.c2" "capacitor" (
3.16062e-16
) PROP(
"model" "capacitor"
)
"DACTOP_0.TSW.R0.c1" "capacitor" (
3.16062e-16
) PROP(
"model" "capacitor"
)
"DACTOP_0.TSW.R1.c3" "capacitor" (
3.16062e-16
) PROP(
"model" "capacitor"
)
"DACTOP_0.TSW.R1.c2" "capacitor" (
3.16062e-16
) PROP(
"model" "capacitor"
)
"DACTOP_0.TSW.R1.c1" "capacitor" (
3.16062e-16
) PROP(
"model" "capacitor"
)
"DACTOP_0.RFILV01_1.R3.c3" "capacitor" (
7.11036e-16
) PROP(
"model" "capacitor"
)
"DACTOP_0.RFILV01_1.R3.c2" "capacitor" (
7.11036e-16
) PROP(
"model" "capacitor"
)
"DACTOP_0.RFILV01_1.R3.c1" "capacitor" (
7.11036e-16
) PROP(
"model" "capacitor"
)
"DACTOP_0.RFILV01_1.R4.c3" "capacitor" (
7.11036e-16
) PROP(
"model" "capacitor"
)
"DACTOP_0.RFILV01_1.R4.c2" "capacitor" (
7.11036e-16
) PROP(
"model" "capacitor"
)
"DACTOP_0.RFILV01_1.R4.c1" "capacitor" (
7.11036e-16
) PROP(
"model" "capacitor"
)
"DACTOP_0.RFILV01_1.R12.c3" "capacitor" (
7.11036e-16
) PROP(
"model" "capacitor"
)
"DACTOP_0.RFILV01_1.R12.c2" "capacitor" (
7.11036e-16
) PROP(
"model" "capacitor"
)
"DACTOP_0.RFILV01_1.R12.c1" "capacitor" (
7.11036e-16
) PROP(
"model" "capacitor"
)
"DACTOP_0.RFILV01_1.R0.c3" "capacitor" (
7.11036e-16
) PROP(
"model" "capacitor"
)
"DACTOP_0.RFILV01_1.R0.c2" "capacitor" (
7.11036e-16
) PROP(
"model" "capacitor"
)
"DACTOP_0.RFILV01_1.R0.c1" "capacitor" (
7.11036e-16
) PROP(
"model" "capacitor"
)
"DACTOP_0.RFILV01_1.R13.c3" "capacitor" (
7.11036e-16
) PROP(
"model" "capacitor"
)
"DACTOP_0.RFILV01_1.R13.c2" "capacitor" (
7.11036e-16
) PROP(
"model" "capacitor"
)
"DACTOP_0.RFILV01_1.R13.c1" "capacitor" (
7.11036e-16
) PROP(
"model" "capacitor"
)
"DACTOP_0.RFILV01_1.R1.c3" "capacitor" (
7.11036e-16
) PROP(
"model" "capacitor"
)
"DACTOP_0.RFILV01_1.R1.c2" "capacitor" (
7.11036e-16
) PROP(
"model" "capacitor"
)
"DACTOP_0.RFILV01_1.R1.c1" "capacitor" (
7.11036e-16
) PROP(
"model" "capacitor"
)
"DACTOP_0.RFILV01_1.R2.c3" "capacitor" (
7.11036e-16
) PROP(
"model" "capacitor"
)
"DACTOP_0.RFILV01_1.R2.c2" "capacitor" (
7.11036e-16
) PROP(
"model" "capacitor"
)
"DACTOP_0.RFILV01_1.R2.c1" "capacitor" (
7.11036e-16
) PROP(
"model" "capacitor"
)
"DACTOP_0.RFILV01_1.R5.c3" "capacitor" (
7.11036e-16
) PROP(
"model" "capacitor"
)
"DACTOP_0.RFILV01_1.R5.c2" "capacitor" (
7.11036e-16
) PROP(
"model" "capacitor"
)
"DACTOP_0.RFILV01_1.R5.c1" "capacitor" (
7.11036e-16
) PROP(
"model" "capacitor"
)
"DACTOP_0.RFILV01_1.R16.c3" "capacitor" (
7.11036e-16
) PROP(
"model" "capacitor"
)
"DACTOP_0.RFILV01_1.R16.c2" "capacitor" (
7.11036e-16
) PROP(
"model" "capacitor"
)
"DACTOP_0.RFILV01_1.R16.c1" "capacitor" (
7.11036e-16
) PROP(
"model" "capacitor"
)
"DACTOP_0.RFILV01_1.R6.c3" "capacitor" (
7.59167e-16
) PROP(
"model" "capacitor"
)
"DACTOP_0.RFILV01_1.R6.c2" "capacitor" (
7.59167e-16
) PROP(
"model" "capacitor"
)
"DACTOP_0.RFILV01_1.R6.c1" "capacitor" (
7.59167e-16
) PROP(
"model" "capacitor"
)
"DACTOP_0.RFILV01_1.R7.c3" "capacitor" (
7.59167e-16
) PROP(
"model" "capacitor"
)
"DACTOP_0.RFILV01_1.R7.c2" "capacitor" (
7.59167e-16
) PROP(
"model" "capacitor"
)
"DACTOP_0.RFILV01_1.R7.c1" "capacitor" (
7.59167e-16
) PROP(
"model" "capacitor"
)
"DACTOP_0.RFILV01_1.R8.c3" "capacitor" (
7.59167e-16
) PROP(
"model" "capacitor"
)
"DACTOP_0.RFILV01_1.R8.c2" "capacitor" (
7.59167e-16
) PROP(
"model" "capacitor"
)
"DACTOP_0.RFILV01_1.R8.c1" "capacitor" (
7.59167e-16
) PROP(
"model" "capacitor"
)
"DACTOP_0.RFILV01_1.R10.c3" "capacitor" (
7.59167e-16
) PROP(
"model" "capacitor"
)
"DACTOP_0.RFILV01_1.R10.c2" "capacitor" (
7.59167e-16
) PROP(
"model" "capacitor"
)
"DACTOP_0.RFILV01_1.R10.c1" "capacitor" (
7.59167e-16
) PROP(
"model" "capacitor"
)
"DACTOP_0.RFILV01_1.R9.c3" "capacitor" (
7.59167e-16
) PROP(
"model" "capacitor"
)
"DACTOP_0.RFILV01_1.R9.c2" "capacitor" (
7.59167e-16
) PROP(
"model" "capacitor"
)
"DACTOP_0.RFILV01_1.R9.c1" "capacitor" (
7.59167e-16
) PROP(
"model" "capacitor"
)
"DACTOP_0.RFILV01_1.R11.c3" "capacitor" (
7.59167e-16
) PROP(
"model" "capacitor"
)
"DACTOP_0.RFILV01_1.R11.c2" "capacitor" (
7.59167e-16
) PROP(
"model" "capacitor"
)
"DACTOP_0.RFILV01_1.R11.c1" "capacitor" (
7.59167e-16
) PROP(
"model" "capacitor"
)
"DACTOP_0.RFILV01_1.R17.c3" "capacitor" (
7.11036e-16
) PROP(
"model" "capacitor"
)
"DACTOP_0.RFILV01_1.R17.c2" "capacitor" (
7.11036e-16
) PROP(
"model" "capacitor"
)
"DACTOP_0.RFILV01_1.R17.c1" "capacitor" (
7.11036e-16
) PROP(
"model" "capacitor"
)
"DACTOP_0.RFILV01_1.R218.c3" "capacitor" (
7.11036e-16
) PROP(
"model" "capacitor"
)
"DACTOP_0.RFILV01_1.R218.c2" "capacitor" (
7.11036e-16
) PROP(
"model" "capacitor"
)
"DACTOP_0.RFILV01_1.R218.c1" "capacitor" (
7.11036e-16
) PROP(
"model" "capacitor"
)
"DACTOP_0.RFILV01_1.R18.c3" "capacitor" (
7.11036e-16
) PROP(
"model" "capacitor"
)
"DACTOP_0.RFILV01_1.R18.c2" "capacitor" (
7.11036e-16
) PROP(
"model" "capacitor"
)
"DACTOP_0.RFILV01_1.R18.c1" "capacitor" (
7.11036e-16
) PROP(
"model" "capacitor"
)
"DACTOP_0.RFILV01_1.R21.c3" "capacitor" (
7.11036e-16
) PROP(
"model" "capacitor"
)
"DACTOP_0.RFILV01_1.R21.c2" "capacitor" (
7.11036e-16
) PROP(
"model" "capacitor"
)
"DACTOP_0.RFILV01_1.R21.c1" "capacitor" (
7.11036e-16
) PROP(
"model" "capacitor"
)
"DACTOP_0.RFILV01_1.R23.c3" "capacitor" (
7.11036e-16
) PROP(
"model" "capacitor"
)
"DACTOP_0.RFILV01_1.R23.c2" "capacitor" (
7.11036e-16
) PROP(
"model" "capacitor"
)
"DACTOP_0.RFILV01_1.R23.c1" "capacitor" (
7.11036e-16
) PROP(
"model" "capacitor"
)
"DACTOP_0.RFILV01_1.R24.c3" "capacitor" (
7.11036e-16
) PROP(
"model" "capacitor"
)
"DACTOP_0.RFILV01_1.R24.c2" "capacitor" (
7.11036e-16
) PROP(
"model" "capacitor"
)
"DACTOP_0.RFILV01_1.R24.c1" "capacitor" (
7.11036e-16
) PROP(
"model" "capacitor"
)
"DACTOP_0.RFILV01_1.R25.c3" "capacitor" (
7.11036e-16
) PROP(
"model" "capacitor"
)
"DACTOP_0.RFILV01_1.R25.c2" "capacitor" (
7.11036e-16
) PROP(
"model" "capacitor"
)
"DACTOP_0.RFILV01_1.R25.c1" "capacitor" (
7.11036e-16
) PROP(
"model" "capacitor"
)
"DACTOP_0.RFILV01_1.R26.c3" "capacitor" (
7.11036e-16
) PROP(
"model" "capacitor"
)
"DACTOP_0.RFILV01_1.R26.c2" "capacitor" (
7.11036e-16
) PROP(
"model" "capacitor"
)
"DACTOP_0.RFILV01_1.R26.c1" "capacitor" (
7.11036e-16
) PROP(
"model" "capacitor"
)
"DACTOP_0.RFILV01_1.R27.c3" "capacitor" (
7.11036e-16
) PROP(
"model" "capacitor"
)
"DACTOP_0.RFILV01_1.R27.c2" "capacitor" (
7.11036e-16
) PROP(
"model" "capacitor"
)
"DACTOP_0.RFILV01_1.R27.c1" "capacitor" (
7.11036e-16
) PROP(
"model" "capacitor"
)
"DACTOP_0.RFILV01_1.R28.c3" "capacitor" (
7.11036e-16
) PROP(
"model" "capacitor"
)
"DACTOP_0.RFILV01_1.R28.c2" "capacitor" (
7.11036e-16
) PROP(
"model" "capacitor"
)
"DACTOP_0.RFILV01_1.R28.c1" "capacitor" (
7.11036e-16
) PROP(
"model" "capacitor"
)
"DACTOP_0.RFILV01_1.R29.c3" "capacitor" (
7.11036e-16
) PROP(
"model" "capacitor"
)
"DACTOP_0.RFILV01_1.R29.c2" "capacitor" (
7.11036e-16
) PROP(
"model" "capacitor"
)
"DACTOP_0.RFILV01_1.R29.c1" "capacitor" (
7.11036e-16
) PROP(
"model" "capacitor"
)
"DACTOP_0.RFILV01_1.R30.c3" "capacitor" (
7.11036e-16
) PROP(
"model" "capacitor"
)
"DACTOP_0.RFILV01_1.R30.c2" "capacitor" (
7.11036e-16
) PROP(
"model" "capacitor"
)
"DACTOP_0.RFILV01_1.R30.c1" "capacitor" (
7.11036e-16
) PROP(
"model" "capacitor"
)
"DACTOP_0.RFILV01_1.R177.c3" "capacitor" (
7.11036e-16
) PROP(
"model" "capacitor"
)
"DACTOP_0.RFILV01_1.R177.c2" "capacitor" (
7.11036e-16
) PROP(
"model" "capacitor"
)
"DACTOP_0.RFILV01_1.R177.c1" "capacitor" (
7.11036e-16
) PROP(
"model" "capacitor"
)
"DACTOP_0.RFILV01_1.R173.c3" "capacitor" (
7.11036e-16
) PROP(
"model" "capacitor"
)
"DACTOP_0.RFILV01_1.R173.c2" "capacitor" (
7.11036e-16
) PROP(
"model" "capacitor"
)
"DACTOP_0.RFILV01_1.R173.c1" "capacitor" (
7.11036e-16
) PROP(
"model" "capacitor"
)
"DACTOP_0.RFILV01_1.R176.c3" "capacitor" (
7.11036e-16
) PROP(
"model" "capacitor"
)
"DACTOP_0.RFILV01_1.R176.c2" "capacitor" (
7.11036e-16
) PROP(
"model" "capacitor"
)
"DACTOP_0.RFILV01_1.R176.c1" "capacitor" (
7.11036e-16
) PROP(
"model" "capacitor"
)
"DACTOP_0.RFILV01_1.R216.c3" "capacitor" (
7.11036e-16
) PROP(
"model" "capacitor"
)
"DACTOP_0.RFILV01_1.R216.c2" "capacitor" (
7.11036e-16
) PROP(
"model" "capacitor"
)
"DACTOP_0.RFILV01_1.R216.c1" "capacitor" (
7.11036e-16
) PROP(
"model" "capacitor"
)
"DACTOP_0.RFILV01_1.R188.c3" "capacitor" (
7.11036e-16
) PROP(
"model" "capacitor"
)
"DACTOP_0.RFILV01_1.R188.c2" "capacitor" (
7.11036e-16
) PROP(
"model" "capacitor"
)
"DACTOP_0.RFILV01_1.R188.c1" "capacitor" (
7.11036e-16
) PROP(
"model" "capacitor"
)
"DACTOP_0.RFILV01_1.R174.c3" "capacitor" (
7.11036e-16
) PROP(
"model" "capacitor"
)
"DACTOP_0.RFILV01_1.R174.c2" "capacitor" (
7.11036e-16
) PROP(
"model" "capacitor"
)
"DACTOP_0.RFILV01_1.R174.c1" "capacitor" (
7.11036e-16
) PROP(
"model" "capacitor"
)
"DACTOP_0.RFILV01_1.R186.c3" "capacitor" (
7.11036e-16
) PROP(
"model" "capacitor"
)
"DACTOP_0.RFILV01_1.R186.c2" "capacitor" (
7.11036e-16
) PROP(
"model" "capacitor"
)
"DACTOP_0.RFILV01_1.R186.c1" "capacitor" (
7.11036e-16
) PROP(
"model" "capacitor"
)
"DACTOP_0.RFILV01_1.R187.c3" "capacitor" (
7.11036e-16
) PROP(
"model" "capacitor"
)
"DACTOP_0.RFILV01_1.R187.c2" "capacitor" (
7.11036e-16
) PROP(
"model" "capacitor"
)
"DACTOP_0.RFILV01_1.R187.c1" "capacitor" (
7.11036e-16
) PROP(
"model" "capacitor"
)
"DACTOP_0.RFILV01_1.R238.c3" "capacitor" (
7.11036e-16
) PROP(
"model" "capacitor"
)
"DACTOP_0.RFILV01_1.R238.c2" "capacitor" (
7.11036e-16
) PROP(
"model" "capacitor"
)
"DACTOP_0.RFILV01_1.R238.c1" "capacitor" (
7.11036e-16
) PROP(
"model" "capacitor"
)
"DACTOP_0.RFILV01_1.R185.c3" "capacitor" (
7.11036e-16
) PROP(
"model" "capacitor"
)
"DACTOP_0.RFILV01_1.R185.c2" "capacitor" (
7.11036e-16
) PROP(
"model" "capacitor"
)
"DACTOP_0.RFILV01_1.R185.c1" "capacitor" (
7.11036e-16
) PROP(
"model" "capacitor"
)
"DACTOP_0.RFILV01_1.R184.c3" "capacitor" (
7.11036e-16
) PROP(
"model" "capacitor"
)
"DACTOP_0.RFILV01_1.R184.c2" "capacitor" (
7.11036e-16
) PROP(
"model" "capacitor"
)
"DACTOP_0.RFILV01_1.R184.c1" "capacitor" (
7.11036e-16
) PROP(
"model" "capacitor"
)
"DACTOP_0.RFILV01_1.R175.c3" "capacitor" (
7.11036e-16
) PROP(
"model" "capacitor"
)
"DACTOP_0.RFILV01_1.R175.c2" "capacitor" (
7.11036e-16
) PROP(
"model" "capacitor"
)
"DACTOP_0.RFILV01_1.R175.c1" "capacitor" (
7.11036e-16
) PROP(
"model" "capacitor"
)
"DACTOP_0.RFILV01_1.R210.c3" "capacitor" (
7.11036e-16
) PROP(
"model" "capacitor"
)
"DACTOP_0.RFILV01_1.R210.c2" "capacitor" (
7.11036e-16
) PROP(
"model" "capacitor"
)
"DACTOP_0.RFILV01_1.R210.c1" "capacitor" (
7.11036e-16
) PROP(
"model" "capacitor"
)
"DACTOP_0.RFILV01_1.R211.c3" "capacitor" (
7.11036e-16
) PROP(
"model" "capacitor"
)
"DACTOP_0.RFILV01_1.R211.c2" "capacitor" (
7.11036e-16
) PROP(
"model" "capacitor"
)
"DACTOP_0.RFILV01_1.R211.c1" "capacitor" (
7.11036e-16
) PROP(
"model" "capacitor"
)
"DACTOP_0.RFILV01_1.R212.c3" "capacitor" (
7.11036e-16
) PROP(
"model" "capacitor"
)
"DACTOP_0.RFILV01_1.R212.c2" "capacitor" (
7.11036e-16
) PROP(
"model" "capacitor"
)
"DACTOP_0.RFILV01_1.R212.c1" "capacitor" (
7.11036e-16
) PROP(
"model" "capacitor"
)
"DACTOP_0.RFILV01_1.R217.c3" "capacitor" (
7.11036e-16
) PROP(
"model" "capacitor"
)
"DACTOP_0.RFILV01_1.R217.c2" "capacitor" (
7.11036e-16
) PROP(
"model" "capacitor"
)
"DACTOP_0.RFILV01_1.R217.c1" "capacitor" (
7.11036e-16
) PROP(
"model" "capacitor"
)
"DACTOP_0.RFILV01_1.R215.c3" "capacitor" (
7.11036e-16
) PROP(
"model" "capacitor"
)
"DACTOP_0.RFILV01_1.R215.c2" "capacitor" (
7.11036e-16
) PROP(
"model" "capacitor"
)
"DACTOP_0.RFILV01_1.R215.c1" "capacitor" (
7.11036e-16
) PROP(
"model" "capacitor"
)
"DACTOP_0.RFILV01_1.R214.c3" "capacitor" (
7.11036e-16
) PROP(
"model" "capacitor"
)
"DACTOP_0.RFILV01_1.R214.c2" "capacitor" (
7.11036e-16
) PROP(
"model" "capacitor"
)
"DACTOP_0.RFILV01_1.R214.c1" "capacitor" (
7.11036e-16
) PROP(
"model" "capacitor"
)
"DACTOP_0.RFILV01_1.R213.c3" "capacitor" (
7.11036e-16
) PROP(
"model" "capacitor"
)
"DACTOP_0.RFILV01_1.R213.c2" "capacitor" (
7.11036e-16
) PROP(
"model" "capacitor"
)
"DACTOP_0.RFILV01_1.R213.c1" "capacitor" (
7.11036e-16
) PROP(
"model" "capacitor"
)
"DACTOP_0.RFILV01_1.R219.c3" "capacitor" (
7.11036e-16
) PROP(
"model" "capacitor"
)
"DACTOP_0.RFILV01_1.R219.c2" "capacitor" (
7.11036e-16
) PROP(
"model" "capacitor"
)
"DACTOP_0.RFILV01_1.R219.c1" "capacitor" (
7.11036e-16
) PROP(
"model" "capacitor"
)
"DACTOP_0.RFILV01_1.R209.c3" "capacitor" (
7.11036e-16
) PROP(
"model" "capacitor"
)
"DACTOP_0.RFILV01_1.R209.c2" "capacitor" (
7.11036e-16
) PROP(
"model" "capacitor"
)
"DACTOP_0.RFILV01_1.R209.c1" "capacitor" (
7.11036e-16
) PROP(
"model" "capacitor"
)
"DACTOP_0.RFILV01_1.R207.c3" "capacitor" (
7.11036e-16
) PROP(
"model" "capacitor"
)
"DACTOP_0.RFILV01_1.R207.c2" "capacitor" (
7.11036e-16
) PROP(
"model" "capacitor"
)
"DACTOP_0.RFILV01_1.R207.c1" "capacitor" (
7.11036e-16
) PROP(
"model" "capacitor"
)
"DACTOP_0.RFILV01_1.R206.c3" "capacitor" (
7.11036e-16
) PROP(
"model" "capacitor"
)
"DACTOP_0.RFILV01_1.R206.c2" "capacitor" (
7.11036e-16
) PROP(
"model" "capacitor"
)
"DACTOP_0.RFILV01_1.R206.c1" "capacitor" (
7.11036e-16
) PROP(
"model" "capacitor"
)
"DACTOP_0.RFILV01_1.R205.c3" "capacitor" (
7.11036e-16
) PROP(
"model" "capacitor"
)
"DACTOP_0.RFILV01_1.R205.c2" "capacitor" (
7.11036e-16
) PROP(
"model" "capacitor"
)
"DACTOP_0.RFILV01_1.R205.c1" "capacitor" (
7.11036e-16
) PROP(
"model" "capacitor"
)
"DACTOP_0.RFILV01_1.R239.c3" "capacitor" (
7.11036e-16
) PROP(
"model" "capacitor"
)
"DACTOP_0.RFILV01_1.R239.c2" "capacitor" (
7.11036e-16
) PROP(
"model" "capacitor"
)
"DACTOP_0.RFILV01_1.R239.c1" "capacitor" (
7.11036e-16
) PROP(
"model" "capacitor"
)
"DACTOP_0.RFILV01_1.R165_2.c3" "capacitor" (
7.59167e-16
) PROP(
"model" "capacitor"
)
"DACTOP_0.RFILV01_1.R165_2.c2" "capacitor" (
7.59167e-16
) PROP(
"model" "capacitor"
)
"DACTOP_0.RFILV01_1.R165_2.c1" "capacitor" (
7.59167e-16
) PROP(
"model" "capacitor"
)
"DACTOP_0.RFILV01_1.R165_1.c3" "capacitor" (
7.59167e-16
) PROP(
"model" "capacitor"
)
"DACTOP_0.RFILV01_1.R165_1.c2" "capacitor" (
7.59167e-16
) PROP(
"model" "capacitor"
)
"DACTOP_0.RFILV01_1.R165_1.c1" "capacitor" (
7.59167e-16
) PROP(
"model" "capacitor"
)
"DACTOP_0.RFILV01_1.R162.c3" "capacitor" (
7.59167e-16
) PROP(
"model" "capacitor"
)
"DACTOP_0.RFILV01_1.R162.c2" "capacitor" (
7.59167e-16
) PROP(
"model" "capacitor"
)
"DACTOP_0.RFILV01_1.R162.c1" "capacitor" (
7.59167e-16
) PROP(
"model" "capacitor"
)
"DACTOP_0.RFILV01_1.R161.c3" "capacitor" (
7.59167e-16
) PROP(
"model" "capacitor"
)
"DACTOP_0.RFILV01_1.R161.c2" "capacitor" (
7.59167e-16
) PROP(
"model" "capacitor"
)
"DACTOP_0.RFILV01_1.R161.c1" "capacitor" (
7.59167e-16
) PROP(
"model" "capacitor"
)
"DACTOP_0.RFILV01_1.R160.c3" "capacitor" (
7.59167e-16
) PROP(
"model" "capacitor"
)
"DACTOP_0.RFILV01_1.R160.c2" "capacitor" (
7.59167e-16
) PROP(
"model" "capacitor"
)
"DACTOP_0.RFILV01_1.R160.c1" "capacitor" (
7.59167e-16
) PROP(
"model" "capacitor"
)
"DACTOP_0.RFILV01_1.R159.c3" "capacitor" (
7.59167e-16
) PROP(
"model" "capacitor"
)
"DACTOP_0.RFILV01_1.R159.c2" "capacitor" (
7.59167e-16
) PROP(
"model" "capacitor"
)
"DACTOP_0.RFILV01_1.R159.c1" "capacitor" (
7.59167e-16
) PROP(
"model" "capacitor"
)
"DACTOP_0.RFILV01_1.R158.c3" "capacitor" (
7.59167e-16
) PROP(
"model" "capacitor"
)
"DACTOP_0.RFILV01_1.R158.c2" "capacitor" (
7.59167e-16
) PROP(
"model" "capacitor"
)
"DACTOP_0.RFILV01_1.R158.c1" "capacitor" (
7.59167e-16
) PROP(
"model" "capacitor"
)
"DACTOP_0.RFILV01_1.R157.c3" "capacitor" (
7.59167e-16
) PROP(
"model" "capacitor"
)
"DACTOP_0.RFILV01_1.R157.c2" "capacitor" (
7.59167e-16
) PROP(
"model" "capacitor"
)
"DACTOP_0.RFILV01_1.R157.c1" "capacitor" (
7.59167e-16
) PROP(
"model" "capacitor"
)
"DACTOP_0.RFILV01_1.R156.c3" "capacitor" (
7.59167e-16
) PROP(
"model" "capacitor"
)
"DACTOP_0.RFILV01_1.R156.c2" "capacitor" (
7.59167e-16
) PROP(
"model" "capacitor"
)
"DACTOP_0.RFILV01_1.R156.c1" "capacitor" (
7.59167e-16
) PROP(
"model" "capacitor"
)
"DACTOP_0.RFILV01_1.R155.c3" "capacitor" (
7.59167e-16
) PROP(
"model" "capacitor"
)
"DACTOP_0.RFILV01_1.R155.c2" "capacitor" (
7.59167e-16
) PROP(
"model" "capacitor"
)
"DACTOP_0.RFILV01_1.R155.c1" "capacitor" (
7.59167e-16
) PROP(
"model" "capacitor"
)
"DACTOP_0.RFILV01_1.R154.c3" "capacitor" (
7.59167e-16
) PROP(
"model" "capacitor"
)
"DACTOP_0.RFILV01_1.R154.c2" "capacitor" (
7.59167e-16
) PROP(
"model" "capacitor"
)
"DACTOP_0.RFILV01_1.R154.c1" "capacitor" (
7.59167e-16
) PROP(
"model" "capacitor"
)