HEADER
"PSFversion" "1.00"
"simulator" "Eldo"
"date" " 3-Sep-2007 12:21:33"
TYPE
"sweep" FLOAT DOUBLE
"node" COMPLEX DOUBLE PROP(
"key" "node"
"units" "V"
)
"branch" COMPLEX DOUBLE PROP(
"key" "branch"
"units" "A"
)
SWEEP
"frequency" "sweep" PROP(
"units" "Hz"
)
TRACE
"group" GROUP 290
"ANT_CM" "node"
"NET88" "node"
"LORX_QCM" "node"
"LORX_ICM" "node"
"LDO" "node"
"LORX_Q" "node"
"LORX_I" "node"
"NET82" "node"
"ANTSOURCE" "node"
"BIST<3>" "node"
"BIST<2>" "node"
"BIST<1>" "node"
"BIST<0>" "node"
"RX_Q<0>" "node"
"RX_I<0>" "node"
"XITOCOMPLEX3.NET052" "node"
"XITOCOMPLEX0.NET24" "node"
"BALUNP" "node"
"BALUNN" "node"
"ATTENUATOR" "node"
"LO_RXLB<0>" "node"
"LO_RXHB<0>" "node"
"LO_RXLB<1>" "node"
"LO_RXHB<1>" "node"
"NET75" "node"
"NET72" "node"
"LO_RXLB<2>" "node"
"LO_RXHB<2>" "node"
"LO_RXLB<3>" "node"
"LO_RXHB<3>" "node"
"NET80" "node"
"NET77" "node"
"ANT" "node"
"ANT_N<7>" "node"
"ANT_N<6>" "node"
"ANT_N<5>" "node"
"ANT_N<4>" "node"
"ANT_N<3>" "node"
"ANT_N<2>" "node"
"ANT_N<1>" "node"
"ANT_N<0>" "node"
"ANT_P<7>" "node"
"ANT_P<6>" "node"
"ANT_P<5>" "node"
"ANT_P<4>" "node"
"ANT_P<3>" "node"
"ANT_P<2>" "node"
"ANT_P<1>" "node"
"ANT_P<0>" "node"
"RX_ON<17>" "node"
"RX_ON<16>" "node"
"RX_ON<15>" "node"
"RX_ON<14>" "node"
"RX_ON<13>" "node"
"RX_ON<12>" "node"
"RX_ON<11>" "node"
"RX_ON<10>" "node"
"RX_ON<9>" "node"
"RX_ON<8>" "node"
"RX_ON<7>" "node"
"RX_ON<6>" "node"
"RX_ON<5>" "node"
"RX_ON<4>" "node"
"RX_ON<3>" "node"
"RX_ON<2>" "node"
"RX_ON<1>" "node"
"RX_ON<0>" "node"
"RXRFMIX_FILTCTRL" "node"
"BIST_EN<3>" "node"
"BIST_EN<2>" "node"
"BIST_EN<1>" "node"
"BIST_EN<0>" "node"
"RX_GAIN<6>" "node"
"RX_GAIN<5>" "node"
"RX_GAIN<4>" "node"
"RX_GAIN<3>" "node"
"RX_GAIN<2>" "node"
"RX_GAIN<1>" "node"
"RX_GAIN<0>" "node"
"RX_TRIM<43>" "node"
"RX_TRIM<42>" "node"
"RX_TRIM<41>" "node"
"RX_TRIM<40>" "node"
"RX_TRIM<39>" "node"
"RX_TRIM<38>" "node"
"RX_TRIM<37>" "node"
"RX_TRIM<36>" "node"
"RX_TRIM<35>" "node"
"RX_TRIM<34>" "node"
"RX_TRIM<33>" "node"
"RX_TRIM<32>" "node"
"RX_TRIM<31>" "node"
"RX_TRIM<30>" "node"
"RX_TRIM<29>" "node"
"RX_TRIM<28>" "node"
"RX_TRIM<27>" "node"
"RX_TRIM<26>" "node"
"RX_TRIM<25>" "node"
"RX_TRIM<24>" "node"
"RX_TRIM<23>" "node"
"RX_TRIM<22>" "node"
"RX_TRIM<21>" "node"
"RX_TRIM<20>" "node"
"RX_TRIM<19>" "node"
"RX_TRIM<18>" "node"
"RX_TRIM<17>" "node"
"RX_TRIM<16>" "node"
"RX_TRIM<15>" "node"
"RX_TRIM<14>" "node"
"RX_TRIM<13>" "node"
"RX_TRIM<12>" "node"
"RX_TRIM<11>" "node"
"RX_TRIM<10>" "node"
"RX_TRIM<9>" "node"
"RX_TRIM<8>" "node"
"RX_TRIM<7>" "node"
"RX_TRIM<6>" "node"
"RX_TRIM<5>" "node"
"RX_TRIM<4>" "node"
"RX_TRIM<3>" "node"
"RX_TRIM<2>" "node"
"RX_TRIM<1>" "node"
"RX_TRIM<0>" "node"
"BISTOUT" "node"
"RX" "node"
"RX_I<2>" "node"
"RX_I<1>" "node"
"RX_Q<2>" "node"
"RX_Q<1>" "node"
"RXIFADC<3>" "node"
"RXIFADC<2>" "node"
"RXIFADC<1>" "node"
"RXIFADC<0>" "node"
"RXIF_LDO" "node"
"RXRF_LDO" "node"
"XIRX.XIRXIF.YI0.IN[1]" "node"
"XIRX.XIRXIF.YI0.IN[2]" "node"
"XIRX.XIRXIF.YI0.OUT[1]" "node"
"XIRX.XIRXIF.YI0.OUT[2]" "node"
"XIRX.XIRXIF.YI0.IRXIFAAFGSM.STATE[1]" "node"
"XIRX.XIRXIF.YI0.IRXIFAAFGSM.STATE[2]" "node"
"XIRX.XIRXIF.YI0.IRXIFAAFGSM.STATE[3]" "node"
"XIRX.XIRXIF.YI0.IRXIFAAFGSM.STATE[4]" "node"
"XIRX.XIRXIF.YI0.IRXIFAAFGSM.STATE[5]" "node"
"XIRX.XIRXIF.YI0.IRXIFAAFGSM.STATE[6]" "node"
"XIRX.XIRXIF.YI0.IRXIFAAFGSM.INT[1]" "node"
"XIRX.XIRXIF.YI0.IRXIFAAFGSM.INT[2]" "node"
"XIRX.XIRXIF.YI0.IRXIFAAFGSM.INT[3]" "node"
"XIRX.XIRXIF.YI0.IRXIFAAFGSM.INT[4]" "node"
"XIRX.XIRXIF.YI0.IRXIFAAFGSM.INT[5]" "node"
"XIRX.XIRXIF.YI0.IRXIFAAFGSM.INT[6]" "node"
"XIRX.XIRXIF.YI0.IRXIFAAFGSM.GM[1]" "node"
"XIRX.XIRXIF.YI0.IRXIFAAFGSM.GM[2]" "node"
"XIRX.XIRXIF.YI0.IRXIFAAFGSM.GM[3]" "node"
"XIRX.XIRXIF.YI0.IRXIFAAFGSM.GM[4]" "node"
"XIRX.XIRXIF.YI0.IRXIFAAFGSM.GM[5]" "node"
"XIRX.XIRXIF.YI0.IRXIFAAFGSM.GM[6]" "node"
"XIRX.XIRXIF.YIRXRFAAFWCDMAQ.IN" "node"
"XIRX.XIRXIF.YIRXRFAAFWCDMAQ.OUT" "node"
"XIRX.XIRXIF.YIRXRFAAFWCDMAQ.IRXIFAAFWCDMA.STATE[1]" "node"
"XIRX.XIRXIF.YIRXRFAAFWCDMAQ.IRXIFAAFWCDMA.STATE[2]" "node"
"XIRX.XIRXIF.YIRXRFAAFWCDMAQ.IRXIFAAFWCDMA.STATE[3]" "node"
"XIRX.XIRXIF.YIRXRFAAFWCDMAQ.IRXIFAAFWCDMA.INT[1]" "node"
"XIRX.XIRXIF.YIRXRFAAFWCDMAQ.IRXIFAAFWCDMA.INT[2]" "node"
"XIRX.XIRXIF.YIRXRFAAFWCDMAQ.IRXIFAAFWCDMA.INT[3]" "node"
"XIRX.XIRXIF.YIRXRFAAFWCDMAQ.IRXIFAAFWCDMA.GM[1]" "node"
"XIRX.XIRXIF.YIRXRFAAFWCDMAQ.IRXIFAAFWCDMA.GM[2]" "node"
"XIRX.XIRXIF.YIRXRFAAFWCDMAQ.IRXIFAAFWCDMA.GM[3]" "node"
"XIRX.XIRXIF.YIRXIFAAFWCDMAI.IN" "node"
"XIRX.XIRXIF.YIRXIFAAFWCDMAI.OUT" "node"
"XIRX.XIRXIF.YIRXIFAAFWCDMAI.IRXIFAAFWCDMA.STATE[1]" "node"
"XIRX.XIRXIF.YIRXIFAAFWCDMAI.IRXIFAAFWCDMA.STATE[2]" "node"
"XIRX.XIRXIF.YIRXIFAAFWCDMAI.IRXIFAAFWCDMA.STATE[3]" "node"
"XIRX.XIRXIF.YIRXIFAAFWCDMAI.IRXIFAAFWCDMA.INT[1]" "node"
"XIRX.XIRXIF.YIRXIFAAFWCDMAI.IRXIFAAFWCDMA.INT[2]" "node"
"XIRX.XIRXIF.YIRXIFAAFWCDMAI.IRXIFAAFWCDMA.INT[3]" "node"
"XIRX.XIRXIF.YIRXIFAAFWCDMAI.IRXIFAAFWCDMA.GM[1]" "node"
"XIRX.XIRXIF.YIRXIFAAFWCDMAI.IRXIFAAFWCDMA.GM[2]" "node"
"XIRX.XIRXIF.YIRXIFAAFWCDMAI.IRXIFAAFWCDMA.GM[3]" "node"
"XIRX.XIRXIF.XISWITCH<3>.YISWITCH3.MID" "node"
"XIRX.XIRXIF.XISWITCH<3>.YISWITCH3.MID_IN__UNNAMED" "node"
"XIRX.XIRXIF.XISWITCH<3>.YISWITCH3.OUT_MID__UNNAMED" "node"
"XIRX.XIRXIF.XISWITCH<3>.YISWITCH3.MID_NSUP__UNNAMED" "node"
"XIRX.XIRXIF.XISWITCH<3>.YISWITCH2.MID" "node"
"XIRX.XIRXIF.XISWITCH<3>.YISWITCH2.MID_IN__UNNAMED" "node"
"XIRX.XIRXIF.XISWITCH<3>.YISWITCH2.OUT_MID__UNNAMED" "node"
"XIRX.XIRXIF.XISWITCH<3>.YISWITCH2.MID_NSUP__UNNAMED" "node"
"XIRX.XIRXIF.XISWITCH<3>.YISWITCH1.MID" "node"
"XIRX.XIRXIF.XISWITCH<3>.YISWITCH1.MID_IN__UNNAMED" "node"
"XIRX.XIRXIF.XISWITCH<3>.YISWITCH1.OUT_MID__UNNAMED" "node"
"XIRX.XIRXIF.XISWITCH<3>.YISWITCH1.MID_NSUP__UNNAMED" "node"
"XIRX.XIRXIF.XISWITCH<3>.YISWITCH0.MID" "node"
"XIRX.XIRXIF.XISWITCH<3>.YISWITCH0.MID_IN__UNNAMED" "node"
"XIRX.XIRXIF.XISWITCH<3>.YISWITCH0.OUT_MID__UNNAMED" "node"
"XIRX.XIRXIF.XISWITCH<3>.YISWITCH0.MID_NSUP__UNNAMED" "node"
"XIRX.XIRXIF.XISWITCH<2>.YISWITCH3.MID" "node"
"XIRX.XIRXIF.XISWITCH<2>.YISWITCH3.MID_IN__UNNAMED" "node"
"XIRX.XIRXIF.XISWITCH<2>.YISWITCH3.OUT_MID__UNNAMED" "node"
"XIRX.XIRXIF.XISWITCH<2>.YISWITCH3.MID_NSUP__UNNAMED" "node"
"XIRX.XIRXIF.XISWITCH<2>.YISWITCH2.MID" "node"
"XIRX.XIRXIF.XISWITCH<2>.YISWITCH2.MID_IN__UNNAMED" "node"
"XIRX.XIRXIF.XISWITCH<2>.YISWITCH2.OUT_MID__UNNAMED" "node"
"XIRX.XIRXIF.XISWITCH<2>.YISWITCH2.MID_NSUP__UNNAMED" "node"
"XIRX.XIRXIF.XISWITCH<2>.YISWITCH1.MID" "node"
"XIRX.XIRXIF.XISWITCH<2>.YISWITCH1.MID_IN__UNNAMED" "node"
"XIRX.XIRXIF.XISWITCH<2>.YISWITCH1.OUT_MID__UNNAMED" "node"
"XIRX.XIRXIF.XISWITCH<2>.YISWITCH1.MID_NSUP__UNNAMED" "node"
"XIRX.XIRXIF.XISWITCH<2>.YISWITCH0.MID" "node"
"XIRX.XIRXIF.XISWITCH<2>.YISWITCH0.MID_IN__UNNAMED" "node"
"XIRX.XIRXIF.XISWITCH<2>.YISWITCH0.OUT_MID__UNNAMED" "node"
"XIRX.XIRXIF.XISWITCH<2>.YISWITCH0.MID_NSUP__UNNAMED" "node"
"XIRX.XIRXIF.XISWITCH<1>.YISWITCH3.MID" "node"
"XIRX.XIRXIF.XISWITCH<1>.YISWITCH3.MID_IN__UNNAMED" "node"
"XIRX.XIRXIF.XISWITCH<1>.YISWITCH3.OUT_MID__UNNAMED" "node"
"XIRX.XIRXIF.XISWITCH<1>.YISWITCH3.MID_NSUP__UNNAMED" "node"
"XIRX.XIRXIF.XISWITCH<1>.YISWITCH2.MID" "node"
"XIRX.XIRXIF.XISWITCH<1>.YISWITCH2.MID_IN__UNNAMED" "node"
"XIRX.XIRXIF.XISWITCH<1>.YISWITCH2.OUT_MID__UNNAMED" "node"
"XIRX.XIRXIF.XISWITCH<1>.YISWITCH2.MID_NSUP__UNNAMED" "node"
"XIRX.XIRXIF.XISWITCH<1>.YISWITCH1.MID" "node"
"XIRX.XIRXIF.XISWITCH<1>.YISWITCH1.MID_IN__UNNAMED" "node"
"XIRX.XIRXIF.XISWITCH<1>.YISWITCH1.OUT_MID__UNNAMED" "node"
"XIRX.XIRXIF.XISWITCH<1>.YISWITCH1.MID_NSUP__UNNAMED" "node"
"XIRX.XIRXIF.XISWITCH<1>.YISWITCH0.MID" "node"
"XIRX.XIRXIF.XISWITCH<1>.YISWITCH0.MID_IN__UNNAMED" "node"
"XIRX.XIRXIF.XISWITCH<1>.YISWITCH0.OUT_MID__UNNAMED" "node"
"XIRX.XIRXIF.XISWITCH<1>.YISWITCH0.MID_NSUP__UNNAMED" "node"
"XIRX.XIRXIF.XISWITCH<0>.YISWITCH3.MID" "node"
"XIRX.XIRXIF.XISWITCH<0>.YISWITCH3.MID_IN__UNNAMED" "node"
"XIRX.XIRXIF.XISWITCH<0>.YISWITCH3.OUT_MID__UNNAMED" "node"
"XIRX.XIRXIF.XISWITCH<0>.YISWITCH3.MID_NSUP__UNNAMED" "node"
"XIRX.XIRXIF.XISWITCH<0>.YISWITCH2.MID" "node"
"XIRX.XIRXIF.XISWITCH<0>.YISWITCH2.MID_IN__UNNAMED" "node"
"XIRX.XIRXIF.XISWITCH<0>.YISWITCH2.OUT_MID__UNNAMED" "node"
"XIRX.XIRXIF.XISWITCH<0>.YISWITCH2.MID_NSUP__UNNAMED" "node"
"XIRX.XIRXIF.XISWITCH<0>.YISWITCH1.MID" "node"
"XIRX.XIRXIF.XISWITCH<0>.YISWITCH1.MID_IN__UNNAMED" "node"
"XIRX.XIRXIF.XISWITCH<0>.YISWITCH1.OUT_MID__UNNAMED" "node"
"XIRX.XIRXIF.XISWITCH<0>.YISWITCH1.MID_NSUP__UNNAMED" "node"
"XIRX.XIRXIF.XISWITCH<0>.YISWITCH0.MID" "node"
"XIRX.XIRXIF.XISWITCH<0>.YISWITCH0.MID_IN__UNNAMED" "node"
"XIRX.XIRXIF.XISWITCH<0>.YISWITCH0.OUT_MID__UNNAMED" "node"
"XIRX.XIRXIF.XISWITCH<0>.YISWITCH0.MID_NSUP__UNNAMED" "node"
"XIRX.XIRXIF.XIRXIFVGA2.YIVGAQ.INTP" "node"
"XIRX.XIRXIF.XIRXIFVGA2.YIVGAQ.INTN" "node"
"XIRX.XIRXIF.XIRXIFVGA2.YIVGAI.INTP" "node"
"XIRX.XIRXIF.XIRXIFVGA2.YIVGAI.INTN" "node"
"XIRX.XIRXIF.XIXRIFVGA1.YIVGAQ.INTP" "node"
"XIRX.XIRXIF.XIXRIFVGA1.YIVGAQ.INTN" "node"
"XIRX.XIRXIF.XIXRIFVGA1.YIVGAI.INTP" "node"
"XIRX.XIRXIF.XIXRIFVGA1.YIVGAI.INTN" "node"
"XIRX.XIRXRF.YIRXRFLNA.INTINP" "node"
"XIRX.XIRXRF.YIRXRFLNA.INTINN" "node"
"XIRX.XIRXRF.YIRXRFLNA.INTOUTP" "node"
"XIRX.XIRXRF.YIRXRFLNA.INTOUTN" "node"
"XIRX.XIRXRF.YIRXRFLNA.INTP" "node"
"XIRX.XIRXRF.YIRXRFLNA.INTN" "node"
"XIRX.XIRXRF.YIRXRFLNA.OUTINT" "node"
"XIRX.XIRXRF.YIRXRFLNA.OUTINT2" "node"
"XITOCOMPLEX3.NET031" "node"
"XITOCOMPLEX3.NET044" "node"
"XITOCOMPLEX3.NET023" "node"
"XITOCOMPLEX0.NET14" "node"
"XITOCOMPLEX0.NET6" "node"
"XITOCOMPLEX0.NET10" "node"
"XIRX.RXIF_QP" "node"
"XIRX.RXIF_QN" "node"
"XIRX.RXIF_IP" "node"
"XIRX.RXIF_IN" "node"
"XIRX.RXRF_IN" "node"
"XIRX.RXRF_IP" "node"
"XIRX.RXRF_QN" "node"
"XIRX.RXRF_QP" "node"
"XIRX.XIRXIF.RXIFVGA1_IP" "node"
"XIRX.XIRXIF.RXIFVGA1_IN" "node"
"XIRX.XIRXIF.RXIFVGA1_QP" "node"
"XIRX.XIRXIF.RXIFVGA1_QN" "node"
"XIRX.XIRXIF.RXIFAAF_IP" "node"
"XIRX.XIRXIF.RXIFAAF_IN" "node"
"XIRX.XIRXIF.RXIFAAF_QP" "node"
"XIRX.XIRXIF.RXIFAAF_QN" "node"
"XIRX.XIRXIF.XIRXIFVGA2.BIAS<0>" "node"
"XIRX.XIRXIF.XIRXIFVGA2.VREF" "node"
"XIRX.XIRXIF.XIXRIFVGA1.BIAS<1>" "node"
"XIRX.XIRXIF.XIXRIFVGA1.BIAS<0>" "node"
"XIRX.XIRXIF.XIXRIFVGA1.VREF" "node"
"XIRX.XIRXRF.RXRFLNA_P<1>" "node"
"XIRX.XIRXRF.RXRFLNA_N<1>" "node"
"XIRX.XIRXRF.RXRFLNA_P<0>" "node"
"XIRX.XIRXRF.RXRFLNA_N<0>" "node"
VALUE
"frequency" 0.00000
"group" (0.600000 0.00000)
(0.00000 0.00000)
(0.600000 0.00000)
(0.600000 0.00000)
(1.20000 0.00000)
(0.00000 0.00000)
(0.00000 0.00000)
(0.00000 0.00000)
(0.00000 0.00000)
(0.600000 0.00000)
(0.600000 0.00000)
(0.600000 0.00000)
(0.600000 0.00000)
(-4.53670e-44 0.00000)
(-6.16298e-33 0.00000)
(0.00000 0.00000)
(0.00000 0.00000)
(0.600000 0.00000)
(0.600000 0.00000)
(3.37969e-193 0.00000)
(0.00000 0.00000)
(0.600000 0.00000)
(0.00000 0.00000)
(0.600000 0.00000)
(0.600000 0.00000)
(0.600000 0.00000)
(0.00000 0.00000)
(0.600000 0.00000)
(0.00000 0.00000)
(0.600000 0.00000)
(0.600000 0.00000)
(0.600000 0.00000)
(2.16958e-193 0.00000)
(0.00000 0.00000)
(0.00000 0.00000)
(0.00000 0.00000)
(0.00000 0.00000)
(0.00000 0.00000)
(0.600000 0.00000)
(0.00000 0.00000)
(0.00000 0.00000)
(0.00000 0.00000)
(0.00000 0.00000)
(0.00000 0.00000)
(0.00000 0.00000)
(0.00000 0.00000)
(0.600000 0.00000)
(0.00000 0.00000)
(0.00000 0.00000)
(1.25000 0.00000)
(1.25000 0.00000)
(1.25000 0.00000)
(0.00000 0.00000)
(1.25000 0.00000)
(0.00000 0.00000)
(0.00000 0.00000)
(1.25000 0.00000)
(0.00000 0.00000)
(0.00000 0.00000)
(0.00000 0.00000)
(0.00000 0.00000)
(0.00000 0.00000)
(1.25000 0.00000)
(0.00000 0.00000)
(0.00000 0.00000)
(1.25000 0.00000)
(1.25000 0.00000)
(1.25000 0.00000)
(0.00000 0.00000)
(1.25000 0.00000)
(0.00000 0.00000)
(0.00000 0.00000)
(0.00000 0.00000)
(0.00000 0.00000)
(0.00000 0.00000)
(1.25000 0.00000)
(1.25000 0.00000)
(0.00000 0.00000)
(1.25000 0.00000)
(0.00000 0.00000)
(1.25000 0.00000)
(1.25000 0.00000)
(1.25000 0.00000)
(0.00000 0.00000)
(0.00000 0.00000)
(0.00000 0.00000)
(0.00000 0.00000)
(0.00000 0.00000)
(0.00000 0.00000)
(0.00000 0.00000)
(0.00000 0.00000)
(0.00000 0.00000)
(0.00000 0.00000)
(0.00000 0.00000)
(0.00000 0.00000)
(0.00000 0.00000)
(0.00000 0.00000)
(0.00000 0.00000)
(0.00000 0.00000)
(0.00000 0.00000)
(0.00000 0.00000)
(0.00000 0.00000)
(0.00000 0.00000)
(0.00000 0.00000)
(0.00000 0.00000)
(0.00000 0.00000)
(0.00000 0.00000)
(0.00000 0.00000)
(0.00000 0.00000)
(0.00000 0.00000)
(0.00000 0.00000)
(0.00000 0.00000)
(1.25000 0.00000)
(1.25000 0.00000)
(1.25000 0.00000)
(0.00000 0.00000)
(0.00000 0.00000)
(0.00000 0.00000)
(0.00000 0.00000)
(0.00000 0.00000)
(0.00000 0.00000)
(0.00000 0.00000)
(0.00000 0.00000)
(1.46371e-32 0.00000)
(-6.16298e-33 0.00000)
(0.00000 0.00000)
(0.00000 0.00000)
(0.00000 0.00000)
(0.00000 0.00000)
(0.00000 0.00000)
(0.00000 0.00000)
(0.00000 0.00000)
(0.00000 0.00000)
(1.20000 0.00000)
(1.20000 0.00000)
(8.62816e-31 0.00000)
(3.38964e-32 0.00000)
(0.00000 0.00000)
(0.00000 0.00000)
(0.00000 0.00000)
(0.00000 0.00000)
(0.00000 0.00000)
(0.00000 0.00000)
(0.00000 0.00000)
(0.00000 0.00000)
(0.00000 0.00000)
(0.00000 0.00000)
(0.00000 0.00000)
(0.00000 0.00000)
(0.00000 0.00000)
(0.00000 0.00000)
(0.00000 0.00000)
(0.00000 0.00000)
(0.00000 0.00000)
(0.00000 0.00000)
(0.00000 0.00000)
(0.00000 0.00000)
(3.38964e-32 0.00000)
(0.00000 0.00000)
(0.00000 0.00000)
(0.00000 0.00000)
(0.00000 0.00000)
(0.00000 0.00000)
(0.00000 0.00000)
(0.00000 0.00000)
(0.00000 0.00000)
(0.00000 0.00000)
(0.00000 0.00000)
(8.62816e-31 0.00000)
(-1.97408e-33 0.00000)
(0.00000 0.00000)
(0.00000 0.00000)
(-1.97408e-33 0.00000)
(0.00000 0.00000)
(0.00000 0.00000)
(-1.97408e-33 0.00000)
(0.00000 0.00000)
(0.00000 0.00000)
(-1.97408e-33 0.00000)
(2.40000e-07 0.00000)
(0.600000 0.00000)
(2.40000e-07 0.00000)
(0.00000 0.00000)
(2.40000e-07 0.00000)
(0.600000 0.00000)
(2.40000e-07 0.00000)
(0.00000 0.00000)
(2.40000e-07 0.00000)
(0.600000 0.00000)
(2.40000e-07 0.00000)
(0.00000 0.00000)
(2.40000e-07 0.00000)
(0.600000 0.00000)
(2.40000e-07 0.00000)
(0.00000 0.00000)
(0.600000 0.00000)
(0.600000 0.00000)
(0.600000 0.00000)
(0.00000 0.00000)
(0.600000 0.00000)
(0.600000 0.00000)
(0.600000 0.00000)
(0.00000 0.00000)
(0.600000 0.00000)
(0.600000 0.00000)
(0.600000 0.00000)
(0.00000 0.00000)
(0.600000 0.00000)
(0.600000 0.00000)
(0.600000 0.00000)
(0.00000 0.00000)
(2.40000e-07 0.00000)
(0.600000 0.00000)
(2.40000e-07 0.00000)
(0.00000 0.00000)
(2.40000e-07 0.00000)
(0.600000 0.00000)
(2.40000e-07 0.00000)
(0.00000 0.00000)
(2.40000e-07 0.00000)
(0.600000 0.00000)
(2.40000e-07 0.00000)
(0.00000 0.00000)
(2.40000e-07 0.00000)
(0.600000 0.00000)
(2.40000e-07 0.00000)
(0.00000 0.00000)
(3.59999e-07 0.00000)
(0.600000 0.00000)
(3.59999e-07 0.00000)
(0.00000 0.00000)
(3.59999e-07 0.00000)
(0.600000 0.00000)
(3.59999e-07 0.00000)
(0.00000 0.00000)
(3.59999e-07 0.00000)
(0.600000 0.00000)
(3.59999e-07 0.00000)
(0.00000 0.00000)
(3.59999e-07 0.00000)
(0.600000 0.00000)
(3.59999e-07 0.00000)
(0.00000 0.00000)
(0.600000 0.00000)
(0.600000 0.00000)
(0.600000 0.00000)
(0.600000 0.00000)
(0.600000 0.00000)
(0.600000 0.00000)
(0.600000 0.00000)
(0.600000 0.00000)
(0.600000 0.00000)
(0.600000 0.00000)
(0.600000 0.00000)
(0.600000 0.00000)
(0.600000 0.00000)
(0.600000 0.00000)
(-4.38255e-13 0.00000)
(-4.38255e-13 0.00000)
(1.46371e-32 0.00000)
(0.00000 0.00000)
(1.46371e-32 0.00000)
(-4.53670e-44 0.00000)
(-6.16298e-33 0.00000)
(0.00000 0.00000)
(0.600000 0.00000)
(0.600000 0.00000)
(0.600000 0.00000)
(0.600000 0.00000)
(1.20000 0.00000)
(1.20000 0.00000)
(1.20000 0.00000)
(1.20000 0.00000)
(0.600000 0.00000)
(0.600000 0.00000)
(0.600000 0.00000)
(0.600000 0.00000)
(0.600000 0.00000)
(0.600000 0.00000)
(0.600000 0.00000)
(0.600000 0.00000)
(0.00000 0.00000)
(0.600000 0.00000)
(0.00000 0.00000)
(0.00000 0.00000)
(0.600000 0.00000)
(0.600000 0.00000)
(0.600000 0.00000)
(0.600000 0.00000)
(0.600000 0.00000)
"frequency" 960000.
"group" (0.00000 0.00000)
(0.00000 0.00000)
(0.00000 0.00000)
(0.00000 0.00000)
(0.00000 0.00000)
(0.00000 0.00000)
(0.00000 0.00000)
(0.00000 0.00000)
(0.00000 0.00000)
(0.000184809 8.39573e-05)
(-0.000184809 -8.39573e-05)
(-8.39573e-05 0.000184809)
(8.39573e-05 -0.000184809)
(-0.000739238 -0.000335829)
(0.000335829 -0.000739238)
(0.000167915 -0.000369619)
(0.000335829 -0.000739238)
(0.00000 0.00000)
(0.00000 0.00000)
(0.00000 0.00000)
(0.00000 0.00000)
(0.00000 0.00000)
(0.00000 0.00000)
(0.00000 0.00000)
(0.00000 0.00000)
(0.00000 0.00000)
(0.00000 0.00000)
(0.00000 0.00000)
(0.00000 0.00000)
(0.00000 0.00000)
(0.00000 0.00000)
(0.00000 0.00000)
(0.00000 0.00000)
(0.00000 0.00000)
(0.00000 0.00000)
(0.00000 0.00000)
(0.00000 0.00000)
(0.00000 0.00000)
(0.00000 0.00000)
(0.00000 0.00000)
(0.00000 0.00000)
(0.00000 0.00000)
(0.00000 0.00000)
(0.00000 0.00000)
(0.00000 0.00000)
(0.00000 0.00000)
(0.00000 0.00000)
(0.00000 0.00000)
(0.00000 0.00000)
(0.00000 0.00000)
(0.00000 0.00000)
(0.00000 0.00000)
(0.00000 0.00000)
(0.00000 0.00000)
(0.00000 0.00000)
(0.00000 0.00000)
(0.00000 0.00000)
(0.00000 0.00000)
(0.00000 0.00000)
(0.00000 0.00000)
(0.00000 0.00000)
(0.00000 0.00000)
(0.00000 0.00000)
(0.00000 0.00000)
(0.00000 0.00000)
(0.00000 0.00000)
(0.00000 0.00000)
(0.00000 0.00000)
(0.00000 0.00000)
(0.00000 0.00000)
(0.00000 0.00000)
(0.00000 0.00000)
(0.00000 0.00000)
(0.00000 0.00000)
(0.00000 0.00000)
(0.00000 0.00000)
(0.00000 0.00000)
(0.00000 0.00000)
(0.00000 0.00000)
(0.00000 0.00000)
(0.00000 0.00000)
(0.00000 0.00000)
(0.00000 0.00000)
(0.00000 0.00000)
(0.00000 0.00000)
(0.00000 0.00000)
(0.00000 0.00000)
(0.00000 0.00000)
(0.00000 0.00000)
(0.00000 0.00000)
(0.00000 0.00000)
(0.00000 0.00000)
(0.00000 0.00000)
(0.00000 0.00000)
(0.00000 0.00000)
(0.00000 0.00000)
(0.00000 0.00000)
(0.00000 0.00000)
(0.00000 0.00000)
(0.00000 0.00000)
(0.00000 0.00000)
(0.00000 0.00000)
(0.00000 0.00000)
(0.00000 0.00000)
(0.00000 0.00000)
(0.00000 0.00000)
(0.00000 0.00000)
(0.00000 0.00000)
(0.00000 0.00000)
(0.00000 0.00000)
(0.00000 0.00000)
(0.00000 0.00000)
(0.00000 0.00000)
(0.00000 0.00000)
(0.00000 0.00000)
(0.00000 0.00000)
(0.00000 0.00000)
(0.00000 0.00000)
(0.00000 0.00000)
(0.00000 0.00000)
(0.00000 0.00000)
(0.00000 0.00000)
(0.00000 0.00000)
(0.000335829 -0.000739237)
(0.000671658 -0.00147848)
(0.00000 0.00000)
(0.00000 0.00000)
(0.00000 0.00000)
(0.00000 0.00000)
(0.00000 0.00000)
(0.00000 0.00000)
(0.00000 0.00000)
(0.00000 0.00000)
(0.00000 0.00000)
(-2.28818e-22 -2.29813e-22)
(0.000384590 -0.000132383)
(-0.000132383 -0.000384590)
(1.47322e-08 1.68708e-06)
(1.68708e-06 -1.47322e-08)
(-9.02702e-06 -5.19034e-05)
(-5.19034e-05 9.02702e-06)
(-1.48487e-05 1.29664e-07)
(1.29664e-07 1.48487e-05)
(1.47322e-08 1.68708e-06)
(1.68708e-06 -1.47322e-08)
(-9.02702e-06 -5.19034e-05)
(-5.19034e-05 9.02702e-06)
(-1.48487e-05 1.29664e-07)
(1.29664e-07 1.48487e-05)
(1.47322e-08 1.68708e-06)
(1.68708e-06 -1.47322e-08)
(-9.02702e-06 -5.19034e-05)
(-5.19034e-05 9.02702e-06)
(-1.48487e-05 1.29664e-07)
(1.29664e-07 1.48487e-05)
(1.47322e-08 1.68708e-06)
(1.68708e-06 -1.47322e-08)
(-0.000132383 -0.000384590)
(-0.000369619 -0.000167915)
(-0.000245845 -0.000287600)
(6.62449e-05 -0.000145820)
(-0.000369619 -0.000167915)
(-0.000245845 -0.000287600)
(6.62449e-05 -0.000145820)
(-0.000369619 -0.000167915)
(-0.000245845 -0.000287600)
(6.62449e-05 -0.000145820)
(-0.000369619 -0.000167915)
(0.000384590 -0.000132383)
(0.000167915 -0.000369619)
(0.000287600 -0.000245845)
(0.000145820 6.62449e-05)
(0.000167915 -0.000369619)
(0.000287600 -0.000245845)
(0.000145820 6.62449e-05)
(0.000167915 -0.000369619)
(0.000287600 -0.000245845)
(0.000145820 6.62449e-05)
(0.000167915 -0.000369619)
(1.10886e-10 5.03744e-11)
(0.000184809 8.39573e-05)
(1.10886e-10 5.03744e-11)
(0.00000 0.00000)
(-1.10886e-10 -5.03744e-11)
(-0.000184809 -8.39573e-05)
(-1.10886e-10 -5.03744e-11)
(0.00000 0.00000)
(-5.03744e-11 1.10886e-10)
(-8.39573e-05 0.000184809)
(-5.03744e-11 1.10886e-10)
(0.00000 0.00000)
(5.03744e-11 -1.10886e-10)
(8.39573e-05 -0.000184809)
(5.03744e-11 -1.10886e-10)
(0.00000 0.00000)
(0.000184809 8.39573e-05)
(0.000184809 8.39573e-05)
(0.000184809 8.39573e-05)
(0.00000 0.00000)
(-0.000184809 -8.39573e-05)
(-0.000184809 -8.39573e-05)
(-0.000184809 -8.39573e-05)
(0.00000 0.00000)
(-8.39573e-05 0.000184809)
(-8.39573e-05 0.000184809)
(-8.39573e-05 0.000184809)
(0.00000 0.00000)
(8.39573e-05 -0.000184809)
(8.39573e-05 -0.000184809)
(8.39573e-05 -0.000184809)
(0.00000 0.00000)
(5.02001e-11 5.52505e-11)
(0.000184809 8.39573e-05)
(5.02001e-11 5.52505e-11)
(0.00000 0.00000)
(-5.02001e-11 -5.52505e-11)
(-0.000184809 -8.39573e-05)
(-5.02001e-11 -5.52505e-11)
(0.00000 0.00000)
(-5.52505e-11 5.02001e-11)
(-8.39573e-05 0.000184809)
(-5.52505e-11 5.02001e-11)
(0.00000 0.00000)
(5.52505e-11 -5.02001e-11)
(8.39573e-05 -0.000184809)
(5.52505e-11 -5.02001e-11)
(0.00000 0.00000)
(3.79297e-11 1.96032e-11)
(0.000184809 8.39573e-05)
(3.79297e-11 1.96032e-11)
(0.00000 0.00000)
(-3.79297e-11 -1.96032e-11)
(-0.000184809 -8.39573e-05)
(-3.79297e-11 -1.96032e-11)
(0.00000 0.00000)
(-1.96032e-11 3.79297e-11)
(-8.39573e-05 0.000184809)
(-1.96032e-11 3.79297e-11)
(0.00000 0.00000)
(1.96032e-11 -3.79297e-11)
(8.39573e-05 -0.000184809)
(1.96032e-11 -3.79297e-11)
(0.00000 0.00000)
(-0.000369619 -0.000167915)
(0.000369619 0.000167915)
(0.000167915 -0.000369619)
(-0.000167915 0.000369619)
(-6.61913e-05 -0.000192295)
(6.61913e-05 0.000192295)
(0.000192295 -6.61913e-05)
(-0.000192295 6.61913e-05)
(0.00000 0.00000)
(0.00000 0.00000)
(0.00000 0.00000)
(0.00000 0.00000)
(0.00000 0.00000)
(0.00000 0.00000)
(0.00000 0.00000)
(0.00000 0.00000)
(-0.000369619 -0.000167915)
(0.000167915 -0.000369619)
(0.000167915 -0.000369619)
(-0.000739238 -0.000335829)
(0.000335829 -0.000739238)
(0.000335829 -0.000739238)
(-0.000369619 -0.000167915)
(0.000369619 0.000167915)
(0.000167915 -0.000369619)
(-0.000167915 0.000369619)
(-1.40586e-05 4.83921e-06)
(1.40586e-05 -4.83921e-06)
(4.83921e-06 1.40586e-05)
(-4.83921e-06 -1.40586e-05)
(0.000192295 -6.61913e-05)
(-0.000192295 6.61913e-05)
(-6.61913e-05 -0.000192295)
(6.61913e-05 0.000192295)
(8.39573e-05 -0.000184809)
(-8.39573e-05 0.000184809)
(-0.000184809 -8.39573e-05)
(0.000184809 8.39573e-05)
(0.00000 0.00000)
(0.00000 0.00000)
(0.00000 0.00000)
(0.00000 0.00000)
(0.00000 0.00000)
(0.00000 0.00000)
(0.00000 0.00000)
(0.00000 0.00000)
(0.00000 0.00000)
"frequency" 1.92000e+06
"group" (0.00000 0.00000)
(0.00000 0.00000)
(0.00000 0.00000)
(0.00000 0.00000)
(0.00000 0.00000)
(0.00000 0.00000)
(0.00000 0.00000)
(0.00000 0.00000)
(0.00000 0.00000)
(5.74527e-37 4.46936e-36)
(4.58432e-37 4.57339e-36)
(-7.29621e-37 -4.48160e-36)
(-3.03338e-37 -4.56115e-36)
(-2.32189e-37 2.08052e-37)
(8.52567e-37 -1.59107e-37)
(-1.04026e-37 -1.16094e-37)
(-2.08052e-37 -2.32189e-37)
(0.00000 0.00000)
(0.00000 0.00000)
(0.00000 0.00000)
(0.00000 0.00000)
(0.00000 0.00000)
(0.00000 0.00000)
(0.00000 0.00000)
(0.00000 0.00000)
(0.00000 0.00000)
(0.00000 0.00000)
(0.00000 0.00000)
(0.00000 0.00000)
(0.00000 0.00000)
(0.00000 0.00000)
(0.00000 0.00000)
(0.00000 0.00000)
(0.00000 0.00000)
(0.00000 0.00000)
(0.00000 0.00000)
(0.00000 0.00000)
(0.00000 0.00000)
(0.00000 0.00000)
(0.00000 0.00000)
(0.00000 0.00000)
(0.00000 0.00000)
(0.00000 0.00000)
(0.00000 0.00000)
(0.00000 0.00000)
(0.00000 0.00000)
(0.00000 0.00000)
(0.00000 0.00000)
(0.00000 0.00000)
(0.00000 0.00000)
(0.00000 0.00000)
(0.00000 0.00000)
(0.00000 0.00000)
(0.00000 0.00000)
(0.00000 0.00000)
(0.00000 0.00000)
(0.00000 0.00000)
(0.00000 0.00000)
(0.00000 0.00000)
(0.00000 0.00000)
(0.00000 0.00000)
(0.00000 0.00000)
(0.00000 0.00000)
(0.00000 0.00000)
(0.00000 0.00000)
(0.00000 0.00000)
(0.00000 0.00000)
(0.00000 0.00000)
(0.00000 0.00000)
(0.00000 0.00000)
(0.00000 0.00000)
(0.00000 0.00000)
(0.00000 0.00000)
(0.00000 0.00000)
(0.00000 0.00000)
(0.00000 0.00000)
(0.00000 0.00000)
(0.00000 0.00000)
(0.00000 0.00000)
(0.00000 0.00000)
(0.00000 0.00000)
(0.00000 0.00000)
(0.00000 0.00000)
(0.00000 0.00000)
(0.00000 0.00000)
(0.00000 0.00000)
(0.00000 0.00000)
(0.00000 0.00000)
(0.00000 0.00000)
(0.00000 0.00000)
(0.00000 0.00000)
(0.00000 0.00000)
(0.00000 0.00000)
(0.00000 0.00000)
(0.00000 0.00000)
(0.00000 0.00000)
(0.00000 0.00000)
(0.00000 0.00000)
(0.00000 0.00000)
(0.00000 0.00000)
(0.00000 0.00000)
(0.00000 0.00000)
(0.00000 0.00000)
(0.00000 0.00000)
(0.00000 0.00000)
(0.00000 0.00000)
(0.00000 0.00000)
(0.00000 0.00000)
(0.00000 0.00000)
(0.00000 0.00000)
(0.00000 0.00000)
(0.00000 0.00000)
(0.00000 0.00000)
(0.00000 0.00000)
(0.00000 0.00000)
(0.00000 0.00000)
(0.00000 0.00000)
(0.00000 0.00000)
(0.00000 0.00000)
(0.00000 0.00000)
(0.00000 0.00000)
(0.00000 0.00000)
(0.00000 0.00000)
(3.22257e-37 -1.95648e-37)
(6.44515e-37 -3.91296e-37)
(0.00000 0.00000)
(0.00000 0.00000)
(0.00000 0.00000)
(0.00000 0.00000)
(0.00000 0.00000)
(0.00000 0.00000)
(0.00000 0.00000)
(0.00000 0.00000)
(0.00000 0.00000)
(-3.60987e-39 1.97733e-38)
(-1.80379e-38 4.82802e-37)
(-8.45999e-38 -1.51676e-37)
(-1.69920e-40 -2.13437e-41)
(5.22783e-41 7.19035e-42)
(2.76439e-38 2.49222e-39)
(-8.83267e-39 2.66368e-39)
(4.86028e-40 -3.37750e-39)
(5.41143e-41 1.06650e-39)
(-1.69920e-40 -2.13437e-41)
(5.22783e-41 7.19035e-42)
(2.76439e-38 2.49222e-39)
(-8.83267e-39 2.66368e-39)
(4.86028e-40 -3.37750e-39)
(5.41143e-41 1.06650e-39)
(-1.69920e-40 -2.13437e-41)
(5.22783e-41 7.19035e-42)
(2.76439e-38 2.49222e-39)
(-8.83267e-39 2.66368e-39)
(4.86028e-40 -3.37750e-39)
(5.41143e-41 1.06650e-39)
(-1.69920e-40 -2.13437e-41)
(5.22783e-41 7.19035e-42)
(-8.45999e-38 -1.51676e-37)
(-1.16094e-37 1.04026e-37)
(-1.25897e-37 -5.23395e-38)
(-8.20800e-38 -9.16021e-38)
(-1.16094e-37 1.04026e-37)
(-1.25897e-37 -5.23395e-38)
(-8.20800e-38 -9.16021e-38)
(-1.16094e-37 1.04026e-37)
(-1.25897e-37 -5.23395e-38)
(-8.20800e-38 -9.16021e-38)
(-1.16094e-37 1.04026e-37)
(-1.80379e-38 4.82802e-37)
(4.26284e-37 -7.95536e-38)
(2.23662e-37 3.06325e-37)
(6.27703e-38 3.36351e-37)
(4.26284e-37 -7.95536e-38)
(2.23662e-37 3.06325e-37)
(6.27703e-38 3.36351e-37)
(4.26284e-37 -7.95536e-38)
(2.23662e-37 3.06325e-37)
(6.27703e-38 3.36351e-37)
(4.26284e-37 -7.95536e-38)
(1.38124e-43 8.73066e-43)
(5.74527e-37 4.46936e-36)
(1.38124e-43 8.73066e-43)
(0.00000 0.00000)
(6.84676e-44 9.35482e-43)
(4.58432e-37 4.57339e-36)
(6.84676e-44 9.35482e-43)
(0.00000 0.00000)
(-2.31181e-43 -8.80408e-43)
(-7.29621e-37 -4.48160e-36)
(-2.31181e-43 -8.80408e-43)
(0.00000 0.00000)
(2.45891e-44 -9.28140e-43)
(-3.03338e-37 -4.56115e-36)
(2.45891e-44 -9.28140e-43)
(0.00000 0.00000)
(3.16287e-37 2.20867e-36)
(5.74527e-37 4.46936e-36)
(3.16287e-37 2.20867e-36)
(0.00000 0.00000)
(2.00193e-37 2.31270e-36)
(4.58432e-37 4.57339e-36)
(2.00193e-37 2.31270e-36)
(0.00000 0.00000)
(-4.71381e-37 -2.22091e-36)
(-7.29621e-37 -4.48160e-36)
(-4.71381e-37 -2.22091e-36)
(0.00000 0.00000)
(-4.50980e-38 -2.30046e-36)
(-3.03338e-37 -4.56115e-36)
(-4.50980e-38 -2.30046e-36)
(0.00000 0.00000)
(1.23365e-43 9.09039e-43)
(5.74527e-37 4.46936e-36)
(1.23365e-43 9.09039e-43)
(0.00000 0.00000)
(8.32264e-44 8.99509e-43)
(4.58432e-37 4.57339e-36)
(8.32264e-44 8.99509e-43)
(0.00000 0.00000)
(-1.44120e-43 -9.44599e-43)
(-7.29621e-37 -4.48160e-36)
(-1.44120e-43 -9.44599e-43)
(0.00000 0.00000)
(-6.24713e-44 -8.63949e-43)
(-3.03338e-37 -4.56115e-36)
(-6.24713e-44 -8.63949e-43)
(0.00000 0.00000)
(2.58240e-30 2.26069e-29)
(5.74527e-37 4.46936e-36)
(2.58240e-30 2.26069e-29)
(0.00000 0.00000)
(2.58240e-30 2.26069e-29)
(4.58432e-37 4.57339e-36)
(2.58240e-30 2.26069e-29)
(0.00000 0.00000)
(-2.58240e-30 -2.26069e-29)
(-7.29621e-37 -4.48160e-36)
(-2.58240e-30 -2.26069e-29)
(0.00000 0.00000)
(-2.58240e-30 -2.26069e-29)
(-3.03338e-37 -4.56115e-36)
(-2.58240e-30 -2.26069e-29)
(0.00000 0.00000)
(-1.16094e-37 1.04026e-37)
(1.16094e-37 -1.04026e-37)
(4.26284e-37 -7.95536e-38)
(-4.26284e-37 7.95536e-38)
(-4.22999e-38 -7.58382e-38)
(4.22999e-38 7.58382e-38)
(-9.01896e-39 2.41401e-37)
(9.01896e-39 -2.41401e-37)
(0.00000 0.00000)
(0.00000 0.00000)
(0.00000 0.00000)
(0.00000 0.00000)
(0.00000 0.00000)
(0.00000 0.00000)
(0.00000 0.00000)
(0.00000 0.00000)
(-1.16094e-37 1.04026e-37)
(-1.04026e-37 -1.16094e-37)
(4.26283e-37 -7.95536e-38)
(-2.32189e-37 2.08052e-37)
(8.52567e-37 -1.59107e-37)
(-2.08052e-37 -2.32189e-37)
(-1.16094e-37 1.04026e-37)
(1.16094e-37 -1.04026e-37)
(4.26284e-37 -7.95536e-38)
(-4.26284e-37 7.95536e-38)
(-1.29120e-23 -1.13034e-22)
(-1.29120e-23 -1.13034e-22)
(1.29120e-23 1.13034e-22)
(1.29120e-23 1.13034e-22)
(-9.01896e-39 2.41401e-37)
(9.01896e-39 -2.41401e-37)
(-4.22999e-38 -7.58382e-38)
(4.22999e-38 7.58382e-38)
(2.13142e-37 -3.97768e-38)
(-2.13142e-37 3.97768e-38)
(-5.80472e-38 5.20131e-38)
(5.80472e-38 -5.20131e-38)
(0.00000 0.00000)
(0.00000 0.00000)
(0.00000 0.00000)
(0.00000 0.00000)
(0.00000 0.00000)
(0.00000 0.00000)
(0.00000 0.00000)
(0.00000 0.00000)
(0.00000 0.00000)
"frequency" 2.88000e+06
"group" (0.00000 0.00000)
(0.00000 0.00000)
(0.00000 0.00000)
(0.00000 0.00000)
(0.00000 0.00000)
(0.00000 0.00000)
(0.00000 0.00000)
(0.00000 0.00000)
(0.00000 0.00000)
(5.85915e-17 1.13267e-16)
(-5.85915e-17 -1.13267e-16)
(1.13267e-16 -5.85918e-17)
(-1.13267e-16 5.85918e-17)
(-2.34366e-16 -4.53069e-16)
(-4.53070e-16 2.34367e-16)
(2.26534e-16 -1.17183e-16)
(4.53069e-16 -2.34366e-16)
(0.00000 0.00000)
(0.00000 0.00000)
(0.00000 0.00000)
(0.00000 0.00000)
(0.00000 0.00000)
(0.00000 0.00000)
(0.00000 0.00000)
(0.00000 0.00000)
(0.00000 0.00000)
(0.00000 0.00000)
(0.00000 0.00000)
(0.00000 0.00000)
(0.00000 0.00000)
(0.00000 0.00000)
(0.00000 0.00000)
(0.00000 0.00000)
(0.00000 0.00000)
(0.00000 0.00000)
(0.00000 0.00000)
(0.00000 0.00000)
(0.00000 0.00000)
(0.00000 0.00000)
(0.00000 0.00000)
(0.00000 0.00000)
(0.00000 0.00000)
(0.00000 0.00000)
(0.00000 0.00000)
(0.00000 0.00000)
(0.00000 0.00000)
(0.00000 0.00000)
(0.00000 0.00000)
(0.00000 0.00000)
(0.00000 0.00000)
(0.00000 0.00000)
(0.00000 0.00000)
(0.00000 0.00000)
(0.00000 0.00000)
(0.00000 0.00000)
(0.00000 0.00000)
(0.00000 0.00000)
(0.00000 0.00000)
(0.00000 0.00000)
(0.00000 0.00000)
(0.00000 0.00000)
(0.00000 0.00000)
(0.00000 0.00000)
(0.00000 0.00000)
(0.00000 0.00000)
(0.00000 0.00000)
(0.00000 0.00000)
(0.00000 0.00000)
(0.00000 0.00000)