HEADER
"PSFversion" "1.00"
"simulator" "spectre"
"version" "4.4.3.100.35"
"date" "5:24:46 PM, Thur Jan 11, 2001"
"design" "* # FILE NAME: /PROJ1/SID/USERS/HENJO/CADENCE/SIM/VCO_BIPOLAR_TESTBENCH/"
"analysis type" "pnoise"
"analysis name" "pnoise0"
"analysis description" "Periodic Noise Analysis `pnoise0': freq = 2.34268 GHz + (1 kHz -> 100 kHz)"
"tolerance.relative" 1.00000e-05
"fundamental frequency" 2.34268e+09
"sweeptype" "relative"
"operating point producer" "pss0"
"ground" "0"
"positive output signal" "2"
"negative output signal" "1"
TYPE
"sweep" FLOAT DOUBLE PROP(
"key" "sweep"
)
"V/sqrt(Hz)" FLOAT DOUBLE PROP(
"units" "V/sqrt(Hz)"
"key" "noise"
)
"V^2/Hz" FLOAT DOUBLE PROP(
"units" "V^2/Hz"
"key" "noise"
)
"pnplat3.lat" STRUCT(
"rb" FLOAT DOUBLE PROP(
"units" "V^2/Hz"
)
"ib" FLOAT DOUBLE PROP(
"units" "V^2/Hz"
)
"rc" FLOAT DOUBLE PROP(
"units" "V^2/Hz"
)
"ic" FLOAT DOUBLE PROP(
"units" "V^2/Hz"
)
"re" FLOAT DOUBLE PROP(
"units" "V^2/Hz"
)
"total" FLOAT DOUBLE PROP(
"units" "V^2/Hz"
)
) PROP(
"key" "inst"
"master" "bjt"
)
"resistor" STRUCT(
"rn" FLOAT DOUBLE PROP(
"units" "V^2/Hz"
)
"fn" FLOAT DOUBLE PROP(
"units" "V^2/Hz"
)
"total" FLOAT DOUBLE PROP(
"units" "V^2/Hz"
)
) PROP(
"key" "inst"
"master" "resistor"
)
"varicap_NPN_g1.lmod1.npninsub" STRUCT(
"rbi" FLOAT DOUBLE PROP(
"units" "V^2/Hz"
)
"rbx" FLOAT DOUBLE PROP(
"units" "V^2/Hz"
)
"rci" FLOAT DOUBLE PROP(
"units" "V^2/Hz"
)
"rcx" FLOAT DOUBLE PROP(
"units" "V^2/Hz"
)
"re" FLOAT DOUBLE PROP(
"units" "V^2/Hz"
)
"itzf" FLOAT DOUBLE PROP(
"units" "V^2/Hz"
)
"ibe" FLOAT DOUBLE PROP(
"units" "V^2/Hz"
)
"fn" FLOAT DOUBLE PROP(
"units" "V^2/Hz"
)
"iccp" FLOAT DOUBLE PROP(
"units" "V^2/Hz"
)
"ibep" FLOAT DOUBLE PROP(
"units" "V^2/Hz"
)
"fnp" FLOAT DOUBLE PROP(
"units" "V^2/Hz"
)
"total" FLOAT DOUBLE PROP(
"units" "V^2/Hz"
)
) PROP(
"key" "inst"
"master" "vbic"
)
"vco_bipolar_par_1.lmod2.npninsub" STRUCT(
"rbi" FLOAT DOUBLE PROP(
"units" "V^2/Hz"
)
"rbx" FLOAT DOUBLE PROP(
"units" "V^2/Hz"
)
"rci" FLOAT DOUBLE PROP(
"units" "V^2/Hz"
)
"rcx" FLOAT DOUBLE PROP(
"units" "V^2/Hz"
)
"re" FLOAT DOUBLE PROP(
"units" "V^2/Hz"
)
"itzf" FLOAT DOUBLE PROP(
"units" "V^2/Hz"
)
"ibe" FLOAT DOUBLE PROP(
"units" "V^2/Hz"
)
"fn" FLOAT DOUBLE PROP(
"units" "V^2/Hz"
)
"iccp" FLOAT DOUBLE PROP(
"units" "V^2/Hz"
)
"ibep" FLOAT DOUBLE PROP(
"units" "V^2/Hz"
)
"fnp" FLOAT DOUBLE PROP(
"units" "V^2/Hz"
)
"total" FLOAT DOUBLE PROP(
"units" "V^2/Hz"
)
) PROP(
"key" "inst"
"master" "vbic"
)
"vco_bipolar_par_1.lmod3.npninsub" STRUCT(
"rbi" FLOAT DOUBLE PROP(
"units" "V^2/Hz"
)
"rbx" FLOAT DOUBLE PROP(
"units" "V^2/Hz"
)
"rci" FLOAT DOUBLE PROP(
"units" "V^2/Hz"
)
"rcx" FLOAT DOUBLE PROP(
"units" "V^2/Hz"
)
"re" FLOAT DOUBLE PROP(
"units" "V^2/Hz"
)
"itzf" FLOAT DOUBLE PROP(
"units" "V^2/Hz"
)
"ibe" FLOAT DOUBLE PROP(
"units" "V^2/Hz"
)
"fn" FLOAT DOUBLE PROP(
"units" "V^2/Hz"
)
"iccp" FLOAT DOUBLE PROP(
"units" "V^2/Hz"
)
"ibep" FLOAT DOUBLE PROP(
"units" "V^2/Hz"
)
"fnp" FLOAT DOUBLE PROP(
"units" "V^2/Hz"
)
"total" FLOAT DOUBLE PROP(
"units" "V^2/Hz"
)
) PROP(
"key" "inst"
"master" "vbic"
)
"vco_bipolar_par_1.lmod4.npninsub" STRUCT(
"rbi" FLOAT DOUBLE PROP(
"units" "V^2/Hz"
)
"rbx" FLOAT DOUBLE PROP(
"units" "V^2/Hz"
)
"rci" FLOAT DOUBLE PROP(
"units" "V^2/Hz"
)
"rcx" FLOAT DOUBLE PROP(
"units" "V^2/Hz"
)
"re" FLOAT DOUBLE PROP(
"units" "V^2/Hz"
)
"itzf" FLOAT DOUBLE PROP(
"units" "V^2/Hz"
)
"ibe" FLOAT DOUBLE PROP(
"units" "V^2/Hz"
)
"fn" FLOAT DOUBLE PROP(
"units" "V^2/Hz"
)
"iccp" FLOAT DOUBLE PROP(
"units" "V^2/Hz"
)
"ibep" FLOAT DOUBLE PROP(
"units" "V^2/Hz"
)
"fnp" FLOAT DOUBLE PROP(
"units" "V^2/Hz"
)
"total" FLOAT DOUBLE PROP(
"units" "V^2/Hz"
)
) PROP(
"key" "inst"
"master" "vbic"
)
SWEEP
"freq" "sweep" PROP(
"sweep_direction" 0
"units" "Hz"
"plot" 0
"grid" 2
)
TRACE
"xi1.qi71.ql" "pnplat3.lat"
"xi1.qi70.ql" "pnplat3.lat"
"xi1.r11" "resistor"
"xi1.r9" "resistor"
"xi1.r8" "resistor"
"xi1.r7" "resistor"
"xi1.r6" "resistor"
"xi1.r10" "resistor"
"xi1.r12" "resistor"
"xi1.r0" "resistor"
"xi1.r2" "resistor"
"xi1.xi93.xl0.ri2" "resistor"
"xi1.xi93.xl0.ri3" "resistor"
"xi1.xi93.xl0.r0" "resistor"
"xi1.xi93.xl0.r2" "resistor"
"xi1.xi107.qi22.q1" "varicap_NPN_g1.lmod1.npninsub"
"xi1.xi107.qi21.q1" "varicap_NPN_g1.lmod1.npninsub"
"xi1.qi59.q1" "vco_bipolar_par_1.lmod2.npninsub"
"xi1.qi100.q1" "vco_bipolar_par_1.lmod2.npninsub"
"xi1.qi102.q1" "vco_bipolar_par_1.lmod2.npninsub"
"xi1.qi35.q1" "vco_bipolar_par_1.lmod3.npninsub"
"xi1.qi36.q1" "vco_bipolar_par_1.lmod3.npninsub"
"xi1.qi75.q1" "vco_bipolar_par_1.lmod4.npninsub"
"xi1.qi61.q1" "vco_bipolar_par_1.lmod4.npninsub"
"xi1.qi60.q1" "vco_bipolar_par_1.lmod4.npninsub"
"out" "V/sqrt(Hz)"
VALUE
"freq" 1000.00
"xi1.qi71.ql" (
7.89833e-12
1.03495e-10
1.94185e-14
3.61372e-10
1.72019e-12
4.74506e-10
)
"xi1.qi70.ql" (
7.24460e-12
8.94294e-13
3.36555e-14
6.26377e-12
1.67581e-12
1.61121e-11
)
"xi1.r11" (
1.00179e-10
0.00000
1.00179e-10
)
"xi1.r9" (
7.52340e-10
0.00000
7.52340e-10
)
"xi1.r8" (
1.50884e-09
0.00000
1.50884e-09
)
"xi1.r7" (
4.19263e-11
0.00000
4.19263e-11
)
"xi1.r6" (
3.99211e-08
0.00000
3.99211e-08
)
"xi1.r10" (
5.63544e-08
0.00000
5.63544e-08
)
"xi1.r12" (
1.49699e-09
0.00000
1.49699e-09
)
"xi1.r0" (
9.00531e-12
0.00000
9.00531e-12
)
"xi1.r2" (
8.77298e-12
0.00000
8.77298e-12
)
"xi1.xi93.xl0.ri2" (
4.14308e-09
0.00000
4.14308e-09
)
"xi1.xi93.xl0.ri3" (
3.78771e-09
0.00000
3.78771e-09
)
"xi1.xi93.xl0.r0" (
3.88674e-08
0.00000
3.88674e-08
)
"xi1.xi93.xl0.r2" (
3.89723e-08
0.00000
3.89723e-08
)
"xi1.xi107.qi22.q1" (
7.66958e-11
1.18673e-15
2.20906e-25
5.56701e-20
2.97363e-17
0.00000
4.55601e-22
1.16178e-19
0.00000
5.03312e-32
7.15994e-36
7.66970e-11
)
"xi1.xi107.qi21.q1" (
7.64882e-11
1.18351e-15
2.19232e-25
5.55147e-20
2.96558e-17
0.00000
4.53978e-22
1.15304e-19
0.00000
5.01949e-32
7.12614e-36
7.64894e-11
)
"xi1.qi59.q1" (
4.03353e-08
2.04823e-08
1.83571e-11
6.71435e-10
1.21232e-09
2.43125e-08
1.53543e-08
8.66933e-07
4.60218e-19
2.50212e-22
1.10588e-21
9.69320e-07
)
"xi1.qi100.q1" (
5.85718e-08
2.62927e-08
1.86792e-13
7.23987e-10
1.71137e-09
6.27503e-08
2.53936e-08
2.16688e-07
0.00000
7.74686e-24
1.05062e-24
3.92132e-07
)
"xi1.qi102.q1" (
7.95638e-10
4.61160e-10
3.50680e-15
1.28482e-11
2.28470e-11
2.16283e-09
8.70260e-10
1.81119e-09
0.00000
6.62262e-25
1.37200e-26
6.13678e-09
)
"xi1.qi35.q1" (
7.87208e-08
3.33382e-08
4.47796e-14
2.82935e-10
2.63706e-09
7.97357e-08
2.05303e-08
6.12790e-05
0.00000
4.83380e-23
3.49243e-21
6.14943e-05
)
"xi1.qi36.q1" (
7.87202e-08
3.33376e-08
4.47758e-14
2.82634e-10
2.63704e-09
7.97232e-08
2.06618e-08
6.20037e-05
0.00000
4.85755e-23
3.56660e-21
6.22191e-05
)
"xi1.qi75.q1" (
4.20781e-09
1.03009e-09
1.38339e-14
9.19107e-11
1.35981e-10
5.17799e-09
4.94897e-10
6.87892e-09
0.00000
8.66452e-25
2.37377e-25
1.80176e-08
)
"xi1.qi61.q1" (
2.94365e-11
1.07428e-11
4.53930e-15
8.01278e-15
1.25257e-12
2.65924e-12
3.35610e-12
2.86603e-08
8.24176e-23
2.43432e-26
1.01335e-23
2.87078e-08
)
"xi1.qi60.q1" (
2.94526e-11
1.07490e-11
4.55012e-15
3.92563e-15
1.25326e-12
2.66502e-12
3.35643e-12
2.86602e-08
1.83792e-22
2.42964e-26
1.01335e-23
2.87077e-08
)
"out" 0.0111957
"freq" 1258.93
"xi1.qi71.ql" (
4.98351e-12
6.53012e-11
1.22523e-14
2.28011e-10
1.08537e-12
2.99393e-10
)
"xi1.qi70.ql" (
4.57103e-12
5.64262e-13
2.12352e-14
3.95218e-12
1.05737e-12
1.01661e-11
)
"xi1.r11" (
6.32087e-11
0.00000
6.32087e-11
)
"xi1.r9" (
4.74695e-10
0.00000
4.74695e-10
)
"xi1.r8" (
9.52015e-10
0.00000
9.52015e-10
)
"xi1.r7" (
2.64537e-11
0.00000
2.64537e-11
)
"xi1.r6" (
2.51885e-08
0.00000
2.51885e-08
)
"xi1.r10" (
3.55573e-08
0.00000
3.55573e-08
)
"xi1.r12" (
9.44535e-10
0.00000
9.44535e-10
)
"xi1.r0" (
5.68197e-12
0.00000
5.68197e-12
)
"xi1.r2" (
5.53538e-12
0.00000
5.53538e-12
)
"xi1.xi93.xl0.ri2" (
2.61411e-09
0.00000
2.61411e-09
)
"xi1.xi93.xl0.ri3" (
2.38989e-09
0.00000
2.38989e-09
)
"xi1.xi93.xl0.r0" (
2.45237e-08
0.00000
2.45237e-08
)
"xi1.xi93.xl0.r2" (
2.45899e-08
0.00000
2.45899e-08
)
"xi1.xi107.qi22.q1" (
4.83919e-11
7.48775e-16
1.39382e-25
3.51255e-20
1.87624e-17
0.00000
2.87465e-22
5.82270e-20
0.00000
3.17569e-32
4.51264e-36
4.83926e-11
)
"xi1.xi107.qi21.q1" (
4.82608e-11
7.46747e-16
1.38326e-25
3.50275e-20
1.87116e-17
0.00000
2.86441e-22
5.77889e-20
0.00000
3.16709e-32
4.49321e-36
4.82616e-11
)
"xi1.qi59.q1" (
2.54499e-08
1.29235e-08
1.15825e-11
4.23647e-10
7.64926e-10
1.53401e-08
9.68794e-09
4.34516e-07
2.90378e-19
1.57873e-22
5.54266e-22
4.99117e-07
)
"xi1.qi100.q1" (
3.69564e-08
1.65896e-08
1.17858e-13
4.56806e-10
1.07980e-09
3.95928e-08
1.60223e-08
1.08615e-07
0.00000
4.88794e-24
5.26657e-25
2.19313e-07
)
"xi1.qi102.q1" (
5.02014e-10
2.90972e-10
2.21264e-15
8.10666e-12
1.44155e-11
1.36466e-09
5.49097e-10
9.07915e-10
0.00000
4.17860e-25
6.88006e-27
3.63718e-09
)
"xi1.qi35.q1" (
4.96695e-08
2.10350e-08
2.82540e-14
1.78520e-10
1.66388e-09
5.03099e-08
1.29537e-08
3.07122e-05
0.00000
3.04992e-23
1.75036e-21
3.08481e-05
)
"xi1.qi36.q1" (
4.96691e-08
2.10346e-08
2.82516e-14
1.78330e-10
1.66386e-09
5.03020e-08
1.30367e-08
3.10755e-05
0.00000
3.06491e-23
1.78754e-21
3.12113e-05
)
"xi1.qi75.q1" (
2.65495e-09
6.49942e-10
8.72862e-15
5.79918e-11
8.57983e-11
3.26710e-09
3.12259e-10
3.44758e-09
0.00000
5.46695e-25
1.18982e-25
1.04756e-08
)
"xi1.qi61.q1" (
1.85732e-11
6.77828e-12
2.86411e-15
5.05573e-15
7.90319e-13
1.67787e-12
2.11756e-12
1.43642e-08
5.20021e-23
1.53595e-26
5.07877e-24
1.43941e-08
)
"xi1.qi60.q1" (
1.85833e-11
6.78216e-12
2.87093e-15
2.47691e-15
7.90751e-13
1.68152e-12
2.11777e-12
1.43641e-08
1.15965e-22
1.53300e-26
5.07877e-24
1.43941e-08
)
"out" 0.00793338
"freq" 1584.89
"xi1.qi71.ql" (
3.14439e-12
4.12023e-11
7.73067e-15
1.43865e-10
6.84823e-13
1.88904e-10
)
"xi1.qi70.ql" (
2.88413e-12
3.56025e-13
1.33985e-14
2.49366e-12
6.67155e-13
6.41437e-12
)
"xi1.r11" (
3.98820e-11
0.00000
3.98820e-11
)
"xi1.r9" (
2.99512e-10
0.00000
2.99512e-10
)
"xi1.r8" (
6.00681e-10
0.00000
6.00681e-10
)
"xi1.r7" (
1.66912e-11
0.00000
1.66912e-11
)
"xi1.r6" (
1.58929e-08
0.00000
1.58929e-08
)
"xi1.r10" (
2.24352e-08
0.00000
2.24352e-08
)
"xi1.r12" (
5.95962e-10
0.00000
5.95962e-10
)
"xi1.r0" (
3.58509e-12
0.00000
3.58509e-12
)
"xi1.r2" (
3.49259e-12
0.00000
3.49259e-12
)
"xi1.xi93.xl0.ri2" (
1.64939e-09
0.00000
1.64939e-09
)
"xi1.xi93.xl0.ri3" (
1.50792e-09
0.00000
1.50792e-09
)
"xi1.xi93.xl0.r0" (
1.54734e-08
0.00000
1.54734e-08
)
"xi1.xi93.xl0.r2" (
1.55152e-08
0.00000
1.55152e-08
)
"xi1.xi107.qi22.q1" (
3.05332e-11
4.72445e-16
8.79446e-26
2.21627e-20
1.18383e-17
0.00000
1.81379e-22
2.91827e-20
0.00000
2.00373e-32
2.84480e-36
3.05337e-11
)
"xi1.xi107.qi21.q1" (
3.04506e-11
4.71166e-16
8.72782e-26
2.21009e-20
1.18062e-17
0.00000
1.80733e-22
2.89632e-20
0.00000
1.99830e-32
2.83348e-36
3.04511e-11
)
"xi1.qi59.q1" (
1.60578e-08
8.15419e-09
7.30810e-12
2.67304e-10
4.82636e-10
9.67899e-09
6.11269e-09
2.17786e-07
1.83216e-19
9.96116e-23
2.77798e-22
2.58547e-07
)
"xi1.qi100.q1" (
2.33179e-08
1.04674e-08
7.43634e-14
2.88225e-10
6.81311e-10
2.49814e-08
1.01094e-08
5.44452e-08
0.00000
3.08409e-24
2.64018e-25
1.24291e-07
)
"xi1.qi102.q1" (
3.16750e-10
1.83591e-10
1.39609e-15
5.11496e-12
9.09559e-12
8.61041e-10
3.46457e-10
4.55142e-10
0.00000
2.63652e-25
3.45059e-27
2.17719e-09
)
"xi1.qi35.q1" (
3.13394e-08
1.32722e-08
1.78271e-14
1.12639e-10
1.04984e-09
3.17434e-08
8.17324e-09
1.53926e-05
0.00000
1.92437e-23
8.77261e-22
1.54783e-05
)
"xi1.qi36.q1" (
3.13391e-08
1.32720e-08
1.78256e-14
1.12519e-10
1.04983e-09
3.17385e-08
8.22563e-09
1.55746e-05
0.00000
1.93383e-23
8.95892e-22
1.56604e-05
)
"xi1.qi75.q1" (
1.67516e-09
4.10086e-10
5.50740e-15
3.65904e-11
5.41351e-11
2.06140e-09
1.97023e-10
1.72786e-09
0.00000
3.44942e-25
5.96398e-26
6.16226e-09
)
"xi1.qi61.q1" (
1.17189e-11
4.27681e-12
1.80713e-15
3.18995e-15
4.98658e-13
1.05867e-12
1.33609e-12
7.19916e-09
3.28111e-23
9.69121e-27
2.54541e-24
7.21805e-09
)
"xi1.qi60.q1" (
1.17253e-11
4.27926e-12
1.81144e-15
1.56282e-15
4.98931e-13
1.06096e-12
1.33622e-12
7.19913e-09
7.31688e-23
9.67260e-27
2.54541e-24
7.21803e-09
)
"out" 0.00562303
"freq" 1995.26
"xi1.qi71.ql" (
1.98398e-12
2.59969e-11
4.87773e-15
9.07728e-11
4.32095e-13
1.19191e-10
)
"xi1.qi70.ql" (
1.81977e-12
2.24637e-13
8.45391e-15
1.57339e-12
4.20947e-13
4.04720e-12
)
"xi1.r11" (
2.51639e-11
0.00000
2.51639e-11
)
"xi1.r9" (
1.88980e-10
0.00000
1.88980e-10
)
"xi1.r8" (
3.79004e-10
0.00000
3.79004e-10
)
"xi1.r7" (
1.05314e-11
0.00000
1.05314e-11
)
"xi1.r6" (
1.00278e-08
0.00000
1.00278e-08
)
"xi1.r10" (
1.41557e-08
0.00000
1.41557e-08
)
"xi1.r12" (
3.76027e-10
0.00000
3.76027e-10
)
"xi1.r0" (
2.26204e-12
0.00000
2.26204e-12
)
"xi1.r2" (
2.20368e-12
0.00000
2.20368e-12
)
"xi1.xi93.xl0.ri2" (
1.04070e-09
0.00000
1.04070e-09
)
"xi1.xi93.xl0.ri3" (
9.51435e-10
0.00000
9.51435e-10
)
"xi1.xi93.xl0.r0" (
9.76309e-09
0.00000
9.76309e-09
)
"xi1.xi93.xl0.r2" (
9.78944e-09
0.00000
9.78944e-09
)
"xi1.xi107.qi22.q1" (
1.92652e-11
2.98094e-16
5.54895e-26
1.39838e-20
7.46946e-18
0.00000
1.14442e-22
1.46261e-20
0.00000
1.26427e-32
1.79370e-36
1.92655e-11
)
"xi1.xi107.qi21.q1" (
1.92130e-11
2.97286e-16
5.50691e-26
1.39447e-20
7.44923e-18
0.00000
1.14035e-22
1.45161e-20
0.00000
1.26084e-32
1.78704e-36
1.92134e-11
)
"xi1.qi59.q1" (
1.01318e-08
5.14496e-09
4.61111e-12
1.68658e-10
3.04524e-10
6.10704e-09
3.85685e-09
1.09159e-07
1.15602e-19
6.28508e-23
1.39233e-22
1.34878e-07
)
"xi1.qi100.q1" (
1.47126e-08
6.60447e-09
4.69202e-14
1.81858e-10
4.29879e-10
1.57622e-08
6.37861e-09
2.72927e-08
0.00000
1.94593e-24
1.32363e-25
7.13624e-08
)
"xi1.qi102.q1" (
1.99856e-10
1.15838e-10
8.80872e-16
3.22733e-12
5.73894e-12
5.43281e-10
2.18600e-10
2.28178e-10
0.00000
1.66353e-25
1.73090e-27
1.31472e-09
)
"xi1.qi35.q1" (
1.97738e-08
8.37420e-09
1.12482e-14
7.10703e-11
6.62403e-10
2.00288e-08
5.15697e-09
7.71456e-06
0.00000
1.21420e-23
4.39673e-22
7.76862e-06
)
"xi1.qi36.q1" (
1.97737e-08
8.37405e-09
1.12472e-14
7.09946e-11
6.62397e-10
2.00256e-08
5.19002e-09
7.80579e-06
0.00000
1.22016e-23
4.49010e-22
7.85989e-06
)
"xi1.qi75.q1" (
1.05696e-09
2.58747e-10
3.47494e-15
2.30870e-11
3.41570e-11
1.30066e-09
1.24313e-10
8.65962e-10
0.00000
2.17644e-25
2.98954e-26
3.66389e-09
)
"xi1.qi61.q1" (
7.39413e-12
2.69849e-12
1.14022e-15
2.01273e-15
3.14632e-13
6.67973e-13
8.43017e-13
3.60813e-09
2.07024e-23
6.11474e-27
1.27573e-24
3.62005e-09
)
"xi1.qi60.q1" (
7.39817e-12
2.70003e-12
1.14294e-15
9.86077e-16
3.14804e-13
6.69424e-13
8.43100e-13
3.60811e-09
4.61665e-23
6.10300e-27
1.27573e-24
3.62004e-09
)
"out" 0.00398671
"freq" 2511.89
"xi1.qi71.ql" (
1.25181e-12
1.64030e-11
3.07764e-15
5.72738e-11
2.72634e-13
7.52043e-11
)
"xi1.qi70.ql" (
1.14820e-12
1.41736e-13
5.33407e-15
9.92746e-13
2.65600e-13
2.55361e-12
)
"xi1.r11" (
1.58774e-11
0.00000
1.58774e-11
)
"xi1.r9" (
1.19238e-10
0.00000
1.19238e-10
)
"xi1.r8" (
2.39136e-10
0.00000
2.39136e-10
)
"xi1.r7" (
6.64489e-12
0.00000
6.64489e-12
)
"xi1.r6" (
6.32712e-09
0.00000
6.32712e-09
)
"xi1.r10" (
8.93164e-09
0.00000
8.93164e-09
)
"xi1.r12" (
2.37257e-10
0.00000
2.37257e-10
)
"xi1.r0" (
1.42725e-12
0.00000
1.42725e-12
)
"xi1.r2" (
1.39043e-12
0.00000
1.39043e-12
)
"xi1.xi93.xl0.ri2" (
6.56638e-10
0.00000
6.56638e-10
)
"xi1.xi93.xl0.ri3" (
6.00316e-10
0.00000
6.00316e-10
)
"xi1.xi93.xl0.r0" (
6.16011e-09
0.00000
6.16011e-09
)
"xi1.xi93.xl0.r2" (
6.17673e-09
0.00000
6.17673e-09
)
"xi1.xi107.qi22.q1" (
1.21556e-11
1.88085e-16
3.50117e-26
8.82318e-21
4.71292e-18
0.00000
7.22085e-23
7.33046e-21
0.00000
7.97701e-33
1.13112e-36
1.21557e-11
)
"xi1.xi107.qi21.q1" (
1.21226e-11
1.87576e-16
3.47464e-26
8.79856e-21
4.70016e-18
0.00000
7.19513e-23
7.27531e-21
0.00000
7.95541e-33
1.12716e-36
1.21228e-11
)
"xi1.qi59.q1" (
6.39276e-09
3.24626e-09
2.90942e-12
1.06416e-10
1.92142e-10
3.85329e-09
2.43352e-09
5.47142e-08
7.29401e-20
3.96563e-23
6.97848e-23
7.09415e-08
)
"xi1.qi100.q1" (
9.28307e-09
4.16715e-09
2.96047e-14
1.14745e-10
2.71236e-10
9.94532e-09
4.02464e-09
1.36822e-08
0.00000
1.22780e-24
6.63640e-26
4.14884e-08
)
"xi1.qi102.q1" (
1.26101e-10
7.30893e-11
5.55794e-16
2.03631e-12
3.62103e-12
3.42788e-10
1.37928e-10
1.14402e-10
0.00000
1.04962e-25
8.68453e-28
7.99966e-10
)
"xi1.qi35.q1" (
1.24765e-08
5.28378e-09
7.09713e-15
4.48423e-11
4.17949e-10
1.26373e-08
3.25383e-09
3.86643e-06
0.00000
7.66107e-24
2.20359e-22
3.90055e-06
)
"xi1.qi36.q1" (
1.24764e-08
5.28368e-09
7.09652e-15
4.47946e-11
4.17945e-10
1.26354e-08
3.27468e-09
3.91216e-06
0.00000
7.69871e-24
2.25039e-22
3.94629e-06
)
"xi1.qi75.q1" (
6.66897e-10
1.63259e-10
2.19254e-15
1.45670e-11
2.15517e-11
8.20662e-10
7.84364e-11
4.33998e-10
0.00000
1.37324e-25
1.49862e-26
2.19937e-09
)
"xi1.qi61.q1" (
4.66539e-12
1.70263e-12
7.19434e-16
1.26995e-15
1.98520e-13
4.21463e-13
5.31908e-13
1.80835e-09
1.30624e-23
3.85815e-27
6.39380e-25
1.81587e-09
)
"xi1.qi60.q1" (
4.66794e-12
1.70361e-12
7.21147e-16
6.22173e-16
1.98628e-13
4.22379e-13
5.31961e-13
1.80834e-09
2.91291e-23
3.85074e-27
6.39380e-25
1.81587e-09
)
"out" 0.00282763
"freq" 3162.28
"xi1.qi71.ql" (
7.89837e-13
1.03496e-11
1.94187e-15
3.61374e-11
1.72021e-13
4.74508e-11
)
"xi1.qi70.ql" (
7.24464e-13
8.94298e-14
3.36558e-15
6.26382e-13
1.67582e-13
1.61122e-12
)
"xi1.r11" (
1.00180e-11
0.00000
1.00180e-11
)
"xi1.r9" (
7.52346e-11
0.00000
7.52346e-11
)
"xi1.r8" (
1.50885e-10
0.00000
1.50885e-10
)
"xi1.r7" (
4.19265e-12
0.00000
4.19265e-12
)
"xi1.r6" (
3.99215e-09
0.00000
3.99215e-09
)
"xi1.r10" (
5.63550e-09
0.00000
5.63550e-09
)
"xi1.r12" (
1.49699e-10
0.00000
1.49699e-10
)
"xi1.r0" (
9.00537e-13
0.00000
9.00537e-13
)
"xi1.r2" (
8.77303e-13
0.00000
8.77303e-13
)
"xi1.xi93.xl0.ri2" (
4.14312e-10
0.00000
4.14312e-10
)
"xi1.xi93.xl0.ri3" (
3.78775e-10
0.00000
3.78775e-10
)
"xi1.xi93.xl0.r0" (
3.88678e-09
0.00000
3.88678e-09
)
"xi1.xi93.xl0.r2" (
3.89727e-09
0.00000
3.89727e-09
)
"xi1.xi107.qi22.q1" (
7.66966e-12
1.18674e-16
2.20910e-26
5.56707e-21
2.97366e-18
0.00000
4.55606e-23
3.67396e-21
0.00000
5.03317e-33
7.13378e-37
7.66978e-12
)
"xi1.xi107.qi21.q1" (
7.64889e-12
1.18353e-16
2.19236e-26
5.55153e-21
2.96561e-18
0.00000
4.53984e-23
3.64632e-21
0.00000
5.01954e-33
7.10996e-37
7.64902e-12
)
"xi1.qi59.q1" (
4.03358e-09
2.04826e-09
1.83572e-12
6.71441e-11
1.21234e-10
2.43127e-09
1.53545e-09
2.74252e-08
4.60222e-20
2.50215e-23
3.49770e-23
3.76639e-08
)
"xi1.qi100.q1" (
5.85724e-09
2.62930e-09
1.86794e-14
7.23994e-11
1.71139e-10
6.27509e-09
2.53939e-09
6.85950e-09
0.00000
7.74693e-25
3.32769e-26
2.44041e-08
)
"xi1.qi102.q1" (
7.95645e-11
4.61163e-11
3.50683e-16
1.28483e-12
2.28472e-12
2.16285e-10
8.70267e-11
5.73637e-11
0.00000
6.62268e-26
4.35857e-28
4.89926e-10
)
"xi1.qi35.q1" (
7.87215e-09
3.33385e-09
4.47800e-15
2.82936e-11
2.63709e-10
7.97364e-09
2.05302e-09
1.93780e-06
0.00000
4.83381e-24
1.10441e-22
1.95933e-06
)
"xi1.qi36.q1" (
7.87209e-09
3.33379e-09
4.47762e-15
2.82635e-11
2.63706e-10
7.97239e-09
2.06618e-09
1.96072e-06
0.00000
4.85756e-24
1.12787e-22
1.98226e-06
)
"xi1.qi75.q1" (
4.20785e-10
1.03010e-10
1.38340e-15
9.19115e-12
1.35982e-11
5.17804e-10
4.94901e-11
2.17508e-10
0.00000
8.66461e-26
7.51275e-27
1.33139e-09
)
"xi1.qi61.q1" (
2.94366e-12
1.07429e-12
4.53932e-16
8.01284e-16
1.25258e-13
2.65926e-13
3.35612e-13
9.06323e-10
8.24182e-24
2.43433e-27
3.20450e-25
9.11069e-10
)
"xi1.qi60.q1" (
2.94527e-12
1.07490e-12
4.55014e-16
3.92566e-16
1.25326e-13
2.66503e-13
3.35645e-13
9.06319e-10
1.83792e-23
2.42965e-27
3.20450e-25
9.11068e-10
)
"out" 0.00200648
"freq" 3981.07
"xi1.qi71.ql" (
4.98355e-13
6.53015e-12
1.22524e-15
2.28012e-11
1.08538e-13
2.99395e-11
)
"xi1.qi70.ql" (
4.57107e-13
5.64265e-14
2.12354e-15
3.95221e-13
1.05738e-13
1.01662e-12
)
"xi1.r11" (
6.32094e-12
0.00000
6.32094e-12
)
"xi1.r9" (
4.74699e-11
0.00000
4.74699e-11
)
"xi1.r8" (
9.52018e-11
0.00000
9.52018e-11
)
"xi1.r7" (
2.64539e-12
0.00000
2.64539e-12
)
"xi1.r6" (
2.51889e-09
0.00000
2.51889e-09
)
"xi1.r10" (
3.55577e-09
0.00000
3.55577e-09
)
"xi1.r12" (
9.44539e-11
0.00000
9.44539e-11
)
"xi1.r0" (
5.68202e-13
0.00000
5.68202e-13
)
"xi1.r2" (
5.53542e-13
0.00000
5.53542e-13
)
"xi1.xi93.xl0.ri2" (
2.61414e-10
0.00000
2.61414e-10
)
"xi1.xi93.xl0.ri3" (
2.38992e-10
0.00000
2.38992e-10
)
"xi1.xi93.xl0.r0" (
2.45240e-09
0.00000
2.45240e-09
)
"xi1.xi93.xl0.r2" (
2.45902e-09
0.00000
2.45902e-09
)
"xi1.xi107.qi22.q1" (
4.83925e-12
7.48784e-17
1.39386e-26
3.51260e-21
1.87626e-18
0.00000
2.87470e-23
1.84136e-21
0.00000
3.17573e-33
4.49955e-37
4.83932e-12
)
"xi1.xi107.qi21.q1" (
4.82614e-12
7.46757e-17
1.38330e-26
3.50279e-21
1.87118e-18
0.00000
2.86446e-23
1.82751e-21
0.00000
3.16713e-33
4.48512e-37
4.82622e-12
)
"xi1.qi59.q1" (
2.54502e-09
1.29237e-09
1.15827e-12
4.23652e-11
7.64936e-11
1.53403e-09
9.68808e-10
1.37471e-08
2.90382e-20
1.57876e-23
1.75311e-23
2.02074e-08
)
"xi1.qi100.q1" (
3.69568e-09
1.65898e-09
1.17859e-14
4.56811e-11
1.07982e-10
3.95933e-09
1.60225e-09
3.43927e-09
0.00000
4.88800e-25
1.66881e-26
1.45092e-08
)
"xi1.qi102.q1" (
5.02020e-11
2.90975e-11
2.21267e-16
8.10674e-13
1.44157e-12
1.36467e-10
5.49103e-11
2.87668e-11
0.00000
4.17864e-26
2.18825e-28
3.01696e-10
)
"xi1.qi35.q1" (
4.96701e-09
2.10352e-09
2.82543e-15
1.78521e-11
1.66390e-10
5.03104e-09
1.29537e-09
9.71201e-07
0.00000
3.04993e-24
5.53519e-23
9.84782e-07
)
"xi1.qi36.q1" (
4.96697e-09
2.10349e-09
2.82519e-15
1.78331e-11
1.66388e-10
5.03026e-09
1.30367e-09
9.82686e-07
0.00000
3.06491e-24
5.65274e-23
9.96275e-07
)
"xi1.qi75.q1" (
2.65498e-10
6.49950e-11
8.72871e-16
5.79924e-12
8.57993e-12
3.26713e-10
3.12262e-11
1.09008e-10
0.00000
5.46702e-26
3.76647e-27
8.11820e-10
)
"xi1.qi61.q1" (
1.85733e-12
6.77832e-13
2.86412e-16
5.05577e-16
7.90323e-14
1.67788e-13
2.11757e-13
4.54238e-10
5.20025e-24
1.53596e-27
1.60606e-25
4.57233e-10
)
"xi1.qi60.q1" (
1.85834e-12
6.78220e-13
2.87095e-16
2.47693e-16
7.90756e-14
1.68152e-13
2.11778e-13
4.54236e-10
1.15965e-23
1.53301e-27
1.60606e-25
4.57232e-10
)
"out" 0.00142463
"freq" 5011.87
"xi1.qi71.ql" (
3.14442e-13
4.12026e-12
7.73076e-16
1.43866e-11
6.84829e-14
1.88906e-11
)
"xi1.qi70.ql" (
2.88416e-13
3.56028e-14
1.33987e-15
2.49369e-13
6.67161e-14
6.41443e-13
)
"xi1.r11" (
3.98826e-12
0.00000
3.98826e-12
)
"xi1.r9" (
2.99516e-11
0.00000
2.99516e-11
)
"xi1.r8" (
6.00684e-11
0.00000
6.00684e-11
)
"xi1.r7" (
1.66913e-12
0.00000
1.66913e-12
)
"xi1.r6" (
1.58932e-09
0.00000
1.58932e-09
)
"xi1.r10" (
2.24355e-09
0.00000
2.24355e-09
)
"xi1.r12" (
5.95965e-11
0.00000
5.95965e-11
)
"xi1.r0" (
3.58512e-13
0.00000
3.58512e-13
)
"xi1.r2" (
3.49262e-13
0.00000
3.49262e-13
)
"xi1.xi93.xl0.ri2" (
1.64942e-10
0.00000
1.64942e-10
)
"xi1.xi93.xl0.ri3" (
1.50794e-10
0.00000
1.50794e-10
)
"xi1.xi93.xl0.r0" (
1.54737e-09
0.00000
1.54737e-09
)
"xi1.xi93.xl0.r2" (
1.55154e-09
0.00000
1.55154e-09
)
"xi1.xi107.qi22.q1" (
3.05337e-12
4.72453e-17
8.79476e-27
2.21631e-21
1.18385e-18
0.00000
1.81382e-23
9.22878e-22
0.00000
2.00376e-33
2.83825e-37
3.05342e-12
)
"xi1.xi107.qi21.q1" (
3.04511e-12
4.71174e-17
8.72812e-27
2.21012e-21
1.18064e-18
0.00000
1.80736e-23
9.15935e-22
0.00000
1.99833e-33
2.82945e-37
3.04515e-12
)
"xi1.qi59.q1" (
1.60581e-09
8.15433e-10
7.30820e-13
2.67308e-11
4.82645e-11
9.67914e-10
6.11280e-10
6.89111e-09
1.83219e-20
9.96134e-24
8.78709e-24
1.09673e-08
)
"xi1.qi100.q1" (
2.33183e-09
1.04675e-09
7.43645e-15
2.88229e-11
6.81322e-11
2.49818e-09
1.01096e-09
1.72458e-09
0.00000
3.08414e-25
8.37029e-27
8.70926e-09
)
"xi1.qi102.q1" (
3.16754e-11
1.83594e-11
1.39610e-16
5.11503e-13
9.09571e-13
8.61052e-11
3.46462e-11
1.44282e-11
0.00000
2.63656e-26
1.09911e-28
1.86636e-10
)
"xi1.qi35.q1" (
3.13398e-09
1.32724e-09
1.78274e-15
1.12639e-11
1.04985e-10
3.17439e-09
8.17323e-10
4.86752e-07
0.00000
1.92438e-24
2.77417e-23
4.95321e-07
)
"xi1.qi36.q1" (
3.13396e-09
1.32722e-09
1.78258e-15
1.12519e-11
1.04984e-10
3.17389e-09
8.22562e-10
4.92509e-07
0.00000
1.93383e-24
2.83309e-23
5.01083e-07
)
"xi1.qi75.q1" (
1.67519e-10
4.10092e-11
5.50747e-16
3.65909e-12
5.41359e-12
2.06143e-10
1.97025e-11
5.46305e-11
0.00000
3.44947e-26
1.88846e-27
4.98077e-10
)
"xi1.qi61.q1" (
1.17190e-12
4.27684e-13
1.80714e-16
3.18999e-16
4.98661e-14
1.05867e-13
1.33610e-13
2.27659e-10
3.28115e-24
9.69127e-28
8.04936e-26
2.29548e-10
)
"xi1.qi60.q1" (
1.17254e-12
4.27929e-13
1.81145e-16
1.56284e-16
4.98934e-14
1.06097e-13
1.33623e-13
2.27658e-10
7.31694e-24
9.67266e-28
8.04936e-26
2.29548e-10
)
"out" 0.00101225
"freq" 6309.57
"xi1.qi71.ql" (
1.98400e-13
2.59971e-12
4.87780e-16
9.07736e-12
4.32100e-14
1.19192e-11
)
"xi1.qi70.ql" (
1.81979e-13
2.24639e-14
8.45404e-16
1.57342e-13
4.20952e-14
4.04725e-13
)
"xi1.r11" (
2.51643e-12
0.00000
2.51643e-12
)
"xi1.r9" (
1.88983e-11
0.00000
1.88983e-11
)
"xi1.r8" (
3.79007e-11
0.00000
3.79007e-11
)
"xi1.r7" (
1.05315e-12
0.00000
1.05315e-12
)
"xi1.r6" (
1.00280e-09
0.00000
1.00280e-09
)
"xi1.r10" (
1.41560e-09
0.00000
1.41560e-09
)
"xi1.r12" (
3.76029e-11
0.00000
3.76029e-11
)
"xi1.r0" (
2.26207e-13
0.00000
2.26207e-13
)
"xi1.r2" (
2.20371e-13
0.00000
2.20371e-13
)
"xi1.xi93.xl0.ri2" (
1.04072e-10
0.00000
1.04072e-10
)
"xi1.xi93.xl0.ri3" (
9.51454e-11
0.00000
9.51454e-11
)
"xi1.xi93.xl0.r0" (
9.76328e-10
0.00000
9.76328e-10
)
"xi1.xi93.xl0.r2" (
9.78963e-10
0.00000
9.78963e-10
)
"xi1.xi107.qi22.q1" (
1.92656e-12
2.98099e-17
5.54919e-27
1.39840e-21
7.46960e-19
0.00000
1.14445e-23
4.62541e-22
0.00000
1.26429e-33
1.79043e-37
1.92659e-12
)
"xi1.xi107.qi21.q1" (
1.92134e-12
2.97292e-17
5.50714e-27
1.39450e-21
7.44938e-19
0.00000
1.14038e-23
4.59061e-22
0.00000
1.26087e-33
1.78503e-37
1.92137e-12
)
"xi1.qi59.q1" (
1.01320e-09
5.14507e-10
4.61119e-13
1.68661e-11
3.04530e-11
6.10716e-10
3.85694e-10
3.45452e-09
1.15604e-20
6.28523e-24
4.40442e-24
6.02642e-09
)
"xi1.qi100.q1" (
1.47130e-09
6.60461e-10
4.69211e-15
1.81861e-11
4.29888e-11
1.57625e-09
6.37874e-10
8.64883e-10
0.00000
1.94597e-25
4.19913e-27
5.27194e-09
)
"xi1.qi102.q1" (
1.99859e-11
1.15840e-11
8.80887e-17
3.22738e-13
5.73903e-13
5.43290e-11
2.18604e-11
7.23793e-12
0.00000
1.66356e-26
5.52367e-29
1.15894e-10
)
"xi1.qi35.q1" (
1.97742e-09
8.37436e-10
1.12484e-15
7.10707e-12
6.62415e-11
2.00291e-09
5.15696e-10
2.43953e-07
0.00000
1.21420e-24
1.39039e-23
2.49360e-07
)
"xi1.qi36.q1" (
1.97741e-09
8.37421e-10
1.12474e-15
7.09951e-12
6.62409e-11
2.00260e-09
5.19001e-10
2.46838e-07
0.00000
1.22016e-24
1.41991e-23
2.52248e-07
)
"xi1.qi75.q1" (
1.05698e-10
2.58752e-11
3.47499e-16
2.30874e-12
3.41576e-12
1.30068e-10
1.24315e-11
2.73784e-11
0.00000
2.17648e-26
9.46940e-28
3.07176e-10
)
"xi1.qi61.q1" (
7.39419e-13
2.69851e-13
1.14023e-16
2.01276e-16
3.14635e-14
6.67979e-14
8.43024e-14
1.14100e-10
2.07027e-24
6.11480e-28
4.03425e-26
1.15292e-10
)
"xi1.qi60.q1" (
7.39824e-13
2.70005e-13
1.14295e-16
9.86091e-17
3.14807e-14
6.69430e-14
8.43107e-14
1.14100e-10
4.61669e-24
6.10305e-28
4.03425e-26
1.15292e-10
)
"out" 0.000719894
"freq" 7943.28
"xi1.qi71.ql" (
1.25182e-13
1.64031e-12
3.07770e-16
5.72744e-12
2.72638e-14
7.52051e-12
)
"xi1.qi70.ql" (
1.14821e-13
1.41738e-14
5.33417e-16
9.92764e-14
2.65604e-14
2.55365e-13
)
"xi1.r11" (
1.58777e-12
0.00000
1.58777e-12
)
"xi1.r9" (
1.19241e-11
0.00000
1.19241e-11
)
"xi1.r8" (
2.39138e-11
0.00000
2.39138e-11
)
"xi1.r7" (
6.64496e-13
0.00000
6.64496e-13
)
"xi1.r6" (
6.32730e-10
0.00000
6.32730e-10
)
"xi1.r10" (
8.93187e-10
0.00000
8.93187e-10
)
"xi1.r12" (
2.37259e-11
0.00000
2.37259e-11
)
"xi1.r0" (
1.42727e-13
0.00000
1.42727e-13
)
"xi1.r2" (
1.39045e-13
0.00000
1.39045e-13
)
"xi1.xi93.xl0.ri2" (
6.56655e-11
0.00000
6.56655e-11
)
"xi1.xi93.xl0.ri3" (
6.00331e-11
0.00000
6.00331e-11
)
"xi1.xi93.xl0.r0" (
6.16026e-10
0.00000
6.16026e-10
)
"xi1.xi93.xl0.r2" (
6.17689e-10
0.00000
6.17689e-10
)
"xi1.xi107.qi22.q1" (
1.21559e-12
1.88089e-17
3.50136e-27
8.82340e-22
4.71304e-19
0.00000
7.22106e-24
2.31823e-22
0.00000
7.97721e-34
1.12950e-37
1.21561e-12
)
"xi1.xi107.qi21.q1" (
1.21229e-12
1.87580e-17
3.47483e-27
8.79877e-22
4.70028e-19
0.00000
7.19534e-24
2.30079e-22
0.00000
7.95561e-34
1.12616e-37
1.21231e-12
)
"xi1.qi59.q1" (
6.39294e-10
3.24635e-10
2.90948e-13
1.06419e-11
1.92147e-11
3.85339e-10
2.43359e-10
1.73185e-09
7.29418e-21
3.96574e-24
2.20772e-24
3.35463e-09
)
"xi1.qi100.q1" (
9.28332e-10
4.16726e-10
2.96054e-15
1.14748e-11
2.71243e-11
9.94555e-10
4.02475e-10
4.33812e-10
0.00000
1.22783e-25
2.10710e-27
3.21450e-09
)
"xi1.qi102.q1" (
1.26103e-11
7.30908e-12
5.55806e-17
2.03635e-13
3.62111e-13
3.42795e-11
1.37931e-11
3.63179e-12
0.00000
1.04964e-26
2.77790e-29
7.21896e-11
)
"xi1.qi35.q1" (
1.24768e-09
5.28390e-10
7.09728e-16
4.48427e-12
4.17958e-11
1.26376e-09
3.25382e-10
1.22266e-07
0.00000
7.66109e-25
6.96848e-24
1.25677e-07
)
"xi1.qi36.q1" (
1.24767e-09
5.28381e-10
7.09668e-16
4.47950e-12
4.17955e-11
1.26356e-09
3.27467e-10
1.23712e-07
0.00000
7.69872e-25
7.11647e-24
1.27125e-07
)
"xi1.qi75.q1" (
6.66912e-11
1.63263e-11
2.19259e-16
1.45673e-12
2.15522e-12
8.20680e-11
7.84379e-12
1.37206e-11
0.00000
1.37328e-26
4.74891e-28
1.90262e-10
)
"xi1.qi61.q1" (
4.66543e-13
1.70265e-13
7.19441e-17
1.26997e-16
1.98522e-14
4.21468e-14
5.31914e-14
5.71857e-11
1.30626e-24
3.85819e-28
2.02192e-26
5.79379e-11
)
"xi1.qi60.q1" (
4.66799e-13
1.70362e-13
7.21155e-17
6.22185e-17
1.98630e-14
4.22383e-14
5.31966e-14
5.71854e-11
2.91294e-24
3.85078e-28
2.02192e-26
5.79380e-11
)
"out" 0.000512550
"freq" 10000.0
"xi1.qi71.ql" (
7.89853e-14
1.03497e-12
1.94191e-16
3.61379e-12
1.72024e-14
4.74514e-12
)
"xi1.qi70.ql" (
7.24478e-14
8.94311e-15
3.36566e-16
6.26396e-14
1.67586e-14
1.61126e-13
)
"xi1.r11" (
1.00183e-12
0.00000
1.00183e-12
)
"xi1.r9" (
7.52365e-12
0.00000
7.52365e-12
)
"xi1.r8" (
1.50886e-11
0.00000
1.50886e-11
)
"xi1.r7" (
4.19270e-13
0.00000
4.19270e-13
)
"xi1.r6" (
3.99230e-10
0.00000
3.99230e-10
)
"xi1.r10" (
5.63569e-10
0.00000
5.63569e-10
)
"xi1.r12" (
1.49701e-11
0.00000
1.49701e-11
)
"xi1.r0" (
9.00553e-14
0.00000
9.00553e-14
)
"xi1.r2" (
8.77320e-14
0.00000
8.77320e-14
)
"xi1.xi93.xl0.ri2" (
4.14325e-11
0.00000
4.14325e-11
)
"xi1.xi93.xl0.ri3" (
3.78787e-11
0.00000
3.78787e-11
)
"xi1.xi93.xl0.r0" (
3.88690e-10
0.00000
3.88690e-10
)
"xi1.xi93.xl0.r2" (
3.89739e-10
0.00000
3.89739e-10
)
"xi1.xi107.qi22.q1" (
7.66990e-13
1.18678e-17
2.20925e-27
5.56724e-22
2.97375e-19
0.00000
4.55623e-24
1.16189e-22
0.00000
5.03333e-34
7.12571e-38
7.67002e-13
)