HEADER
"PSFversion" "1.00"
"simulator" "Eldo"
"date" "11-Oct-2007 15:48:45"
TYPE
"sweep" FLOAT DOUBLE
"node" FLOAT DOUBLE PROP(
"key" "node"
"units" "V"
)
"branch" FLOAT DOUBLE PROP(
"key" "branch"
"units" "A"
)
SWEEP
"voltage" "sweep" PROP(
"units" "V"
)
TRACE
"group" GROUP 3
"VOUT" "node"
"VIN" "node"
"R0" "branch"
VALUE
"voltage" 1.00000
"group" -6.00000
1.00000
-0.00600000
"voltage" 2.00000
"group" -4.00000
2.00000
-0.00400000
"voltage" 3.00000
"group" -2.00000
3.00000
-0.00200000
"voltage" 4.00000
"group" 0.00000
4.00000
0.00000
END
