HEADER
"PSFversion" "1.00"
"simulator" "spectre"
"version" "4.4.3.100.35"
"date" "8:55:51 PM, Mon Feb 5, 2001"
"design" "// Generated for: spectre"
"analysis type" "tran"
"analysis name" "tran"
"analysis description" "Transient Analysis `tran': time = (0 s -> 20 ns)"
"tolerance.relative" 0.000100000
"start" 0.00000
"outputstart" 0.00000
"stop" 2.00000e-08
"step" 2.00000e-11
"maxstep" 2.00000e-10
"ic" "all"
"skipdc" "no"
"reltol" 1.00000e-05
"abstol(V)" 1.00000e-06
"abstol(I)" 1.00000e-12
"temp" 27.0000
"tnom" 27.0000
"tempeffects" "all"
"errpreset" "conservative"
"method" "gear2only"
"lteratio" 10.0000
"relref" "alllocal"
"cmin" 0.00000
"gmin" 1.00000e-12
TYPE
"sweep" FLOAT DOUBLE PROP(
"key" "sweep"
)
"V" FLOAT DOUBLE PROP(
"units" "V"
"key" "node"
"tolerance" 1.00000e-06
)
"I" FLOAT DOUBLE PROP(
"units" "A"
"key" "branch"
"tolerance" 1.00000e-12
)
"U" FLOAT DOUBLE PROP(
"key" "node"
"tolerance" 1.00000e-06
)
"MMF" FLOAT DOUBLE PROP(
"units" "A*turn"
"key" "node"
"tolerance" 1.00000e-12
)
"Wb" FLOAT DOUBLE PROP(
"units" "Wb"
"key" "node"
"tolerance" 1.00000e-09
)
"Temp" FLOAT DOUBLE PROP(
"units" "C"
"key" "node"
"tolerance" 0.000100000
)
"Pwr" FLOAT DOUBLE PROP(
"units" "W"
"key" "node"
"tolerance" 1.00000e-09
)
SWEEP
"time" "sweep" PROP(
"sweep_direction" 0
"units" "s"
"plot" 0
"grid" 1
)
TRACE
"group" GROUP 32
"C0:1" "I" PROP(
"units" "A"
)
"I1:d" "I" PROP(
"units" "A"
)
"I1:g" "I" PROP(
"units" "A"
)
"I1:s" "I" PROP(
"units" "A"
)
"I1:b" "U" PROP(
"units" ""
)
"I2:d" "I" PROP(
"units" "A"
)
"I2:g" "U" PROP(
"units" ""
)
"I2:s" "I" PROP(
"units" "A"
)
"I2:b" "I" PROP(
"units" "A"
)
"I3:d" "I" PROP(
"units" "A"
)
"I3:g" "I" PROP(
"units" "A"
)
"I3:s" "I" PROP(
"units" "A"
)
"I3:b" "U" PROP(
"units" ""
)
"I4:d" "U" PROP(
"units" ""
)
"I4:g" "I" PROP(
"units" "A"
)
"I4:s" "I" PROP(
"units" "A"
)
"I4:b" "I" PROP(
"units" "A"
)
"I5:d" "U" PROP(
"units" ""
)
"I5:g" "U" PROP(
"units" ""
)
"I5:s" "I" PROP(
"units" "A"
)
"I5:b" "I" PROP(
"units" "A"
)
"R0:1" "I" PROP(
"units" "A"
)
"net6" "V"
"net12" "V"
"net21" "V"
"net24" "V"
"net44" "V"
"net53" "V"
"V0:p" "I"
"V1:p" "I"
"V2:p" "I"
"vdd!" "V"
VALUE
"time" 0.00000
"group" 0.00000
0.00000
0.00000
0.00000
0.00000
-0.000514012
1.61708e-20
0.000514012
3.53297e-15
0.000195306
7.39612e-21
-0.000195306
-2.76000e-14
-0.000195306
8.61500e-21
0.000195306
3.10825e-14
0.00000
0.00000
0.00000
0.00000
0.00000
1.66247
0.00000
2.80000
0.800000
0.00000
0.00000
0.000514012
-0.000709319
0.000514012
3.00000
"time" 4.45926e-13
"group" 5.39792e-07
0.00000
0.00000
0.00000
0.00000
-0.000548303
-9.93131e-05
0.000472175
0.000175441
3.40903e-05
0.000472689
-0.000174610
-0.000332170
0.000112800
0.00101973
-0.000571459
-0.000561076
0.00000
0.00000
0.00000
0.00000
5.39792e-07
1.66301
0.00000
2.80112
0.801121
0.00000
0.000539792
-0.00129634
-0.000329485
-0.000276608
3.00000
"time" 6.26807e-13
"group" 7.43641e-07
0.00000
0.00000
0.00000
0.00000
-0.000555516
-0.000121278
0.000462357
0.000214438
2.41044e-05
0.000484113
-0.000197649
-0.000310568
0.000173948
0.00112388
-0.000597997
-0.000699834
0.00000
0.00000
0.00000
0.00000
7.43641e-07
1.66322
0.00000
2.80158
0.801575
0.00000
0.000743641
-0.00148636
-0.000267016
-0.000362479
3.00000
"time" 9.88570e-13
"group" 1.14689e-06
-3.71016e-18
2.80260e-45
-4.28549e-17
1.53211e-29
-0.000561761
-0.000143174
0.000451379
0.000253556
2.25696e-05
0.000490913
-0.000214953
-0.000298530
0.000223045
0.00118821
-0.000580703
-0.000830555
-4.57131e-17
-1.11022e-16
-1.35321e-17
1.11022e-16
1.14689e-06
1.66362
-1.27912e-17
2.80248
0.802484
-1.33622e-18
0.00114689
-0.00163741
-0.000207457
-0.000449200
3.00000
"time" 1.26348e-12
"group" 1.45342e-06
-2.32187e-18
-1.11022e-16
2.14713e-17
2.22045e-16
-0.000561986
-0.000147814
0.000447785
0.000262015
2.43232e-05
0.000490001
-0.000214023
-0.000300300
0.000229208
0.00119292
-0.000568218
-0.000853915
5.94097e-17
8.32667e-17
2.12879e-17
-5.55112e-17
1.45342e-06
1.66393
3.49591e-18
2.80318
0.803175
4.36206e-17
0.00145342
-0.00166241
-0.000192651
-0.000469487
3.00000
"time" 1.58090e-12
"group" 1.80843e-06
-1.16811e-17
-2.22045e-16
4.16423e-18
2.22045e-16
-0.000560433
-0.000148526
0.000445504
0.000263454
2.58418e-05
0.000488887
-0.000212415
-0.000302314
0.000229858
0.00119086
-0.000564350
-0.000856373
-3.20864e-17
1.66533e-16
1.83119e-17
-1.11022e-16
1.80843e-06
1.66428
1.49059e-17
2.80397
0.803973
5.09783e-17
0.00180843
-0.00166656
-0.000187564
-0.000475691
3.00000
"time" 2.02462e-12
"group" 2.30581e-06
5.58252e-16
-2.22045e-16
-4.98266e-17
-1.11022e-16
-0.000557593
-0.000147979
0.000442969
0.000262603
2.76396e-05
0.000488457
-0.000212984
-0.000303112
0.000231213
0.00118781
-0.000564762
-0.000854261
-1.41371e-16
-5.55112e-17
-3.88323e-17
2.77556e-16
2.30581e-06
1.66478
-1.39078e-17
2.80509
0.805088
6.25383e-17
0.00230581
-0.00166561
-0.000186278
-0.000477798
3.00000
"time" 2.86430e-12
"group" 3.24898e-06
7.52895e-17
3.88578e-16
-3.90833e-17
-3.33067e-16
-0.000552282
-0.000147358
0.000438048
0.000261591
3.10392e-05
0.000488278
-0.000215872
-0.000303445
0.000235731
0.00118392
-0.000566050
-0.000853598
1.34234e-16
8.32667e-17
2.03446e-17
-3.05311e-16
3.24898e-06
1.66572
1.10065e-17
2.80720
0.807197
2.89229e-16
0.00324898
-0.00166499
-0.000185598
-0.000481076
3.00000
"time" 4.54365e-12
"group" 5.14207e-06
1.75409e-16
5.55112e-17
-6.42323e-17
-1.66533e-16
-0.000542018
-0.000147174
0.000427793
0.000261399
3.79953e-05
0.000487674
-0.000221507
-0.000304162
0.000245701
0.00117762
-0.000566243
-0.000857082
-2.49620e-17
0.00000
9.69821e-19
5.55112e-17
5.14207e-06
1.66761
1.63180e-17
2.81141
0.811413
7.99474e-16
0.00514207
-0.00166757
-0.000182900
-0.000489943
3.00000
"time" 7.70187e-12
"group" 8.72393e-06
8.12342e-17
-1.11022e-16
-5.45946e-18
4.16334e-17
-0.000522785
-0.000147018
0.000408394
0.000261409
5.15487e-05
0.000485809
-0.000231963
-0.000305394
0.000263550
0.00116499
-0.000564467
-0.000864076
-2.11848e-18
6.93889e-18
5.34729e-19
-6.93889e-18
8.72393e-06
1.67120
3.71237e-17
2.81933
0.819327
1.25515e-15
0.00872393
-0.00167215
-0.000177222
-0.000507154
3.00000
"time" 1.31249e-11
"group" 1.49234e-05
-1.87057e-17
2.08167e-17
-7.29842e-20
1.38778e-17
-0.000489558
-0.000146171
0.000375309
0.000260420
7.61711e-05
0.000480752
-0.000250468
-0.000306455
0.000290767
0.00113930
-0.000557585
-0.000872482
2.79626e-20
4.16334e-17
-1.42617e-18
-3.81639e-17
1.49234e-05
1.67740
2.68589e-17
2.83284
0.832837
1.53483e-15
0.0149234
-0.00167256
-0.000169831
-0.000533262
3.00000
"time" 1.83106e-11
"group" 2.08825e-05
-2.75686e-17
-3.46945e-18
-9.39696e-19
1.73472e-17
-0.000457636
-0.000144617
0.000344094
0.000258159
0.000101315
0.000473259
-0.000268649
-0.000305926
0.000312394
0.00110907
-0.000545696
-0.000875767
-8.07562e-18
-1.56125e-17
-3.70115e-18
1.73472e-17
2.08825e-05
1.68336
-2.92327e-17
2.84561
0.845615
1.46404e-15
0.0208825
-0.00166205
-0.000166212
-0.000552980
3.00000
"time" 2.31548e-11
"group" 2.64501e-05
3.36309e-18
2.77556e-17
-1.63391e-18
-1.91896e-27
-0.000427814
-0.000142539
0.000315426
0.000254927
0.000126016
0.000464058
-0.000285956
-0.000304118
0.000328869
0.00107611
-0.000530176
-0.000874799
-9.60261e-19
-5.20417e-18
8.15998e-19
1.21431e-17
2.64501e-05
1.68893
-3.85806e-17
2.85738
0.857377
1.47843e-15
0.0264501
-0.00164296
-0.000165757
-0.000566856
3.00000
"time" 2.80761e-11
"group" 3.20823e-05
1.11272e-17
-3.58732e-43
-3.49341e-19
-6.93889e-18
-0.000397661
-0.000139891
0.000286878
0.000250673
0.000152026
0.000452892
-0.000303769
-0.000301149
0.000342311
0.00103875
-0.000510739
-0.000870326
5.65070e-18
1.73472e-18
8.65713e-19
-1.56125e-17
3.20823e-05
1.69456
-2.51165e-17
2.86911
0.869108
1.57818e-15
0.0320823
-0.00161573
-0.000167839
-0.000576971
3.00000
"time" 3.31628e-11
"group" 3.78527e-05
-3.73159e-18
-6.93889e-18
5.91915e-18
1.73472e-17
-0.000366772
-0.000136588
0.000258113
0.000245247
0.000179676
0.000439453
-0.000322250
-0.000296879
0.000352834
0.000996207
-0.000487021
-0.000862019
7.06398e-18
3.46945e-18
1.06703e-18
-1.04083e-17
3.78527e-05
1.70033
2.61620e-19
2.88096
0.880956
1.60777e-15
0.0378527
-0.00157931
-0.000172611
-0.000583107
3.00000
"time" 3.83762e-11
"group" 4.36862e-05
9.03989e-21
-6.93889e-18
1.28081e-18
-6.93889e-18
-0.000335538
-0.000132602
0.000229558
0.000238582
0.000208590
0.000423699
-0.000341043
-0.000291246
0.000360204
0.000948620
-0.000459243
-0.000849581
-3.93389e-18
-6.93889e-18
1.19222e-18
6.93889e-18
4.36862e-05
1.70617
1.16194e-17
2.89275
0.892755
1.55826e-15
0.0436862
-0.00153332
-0.000180195
-0.000584697
3.00000
"time" 4.37149e-11
"group" 4.95475e-05
-1.02931e-17
7.17465e-43
3.74235e-18
-1.94961e-27
-0.000304145
-0.000127904
0.000201435
0.000230615
0.000238522
0.000405568
-0.000359878
-0.000284212
0.000364391
0.000896083
-0.000427690
-0.000832783
4.03593e-19
3.46945e-18
-8.48835e-19
-1.73472e-18
4.95475e-05
1.71203
5.89427e-18
2.90442
0.904424
1.45510e-15
0.0495475
-0.00147744
-0.000190635
-0.000581359
3.00000
"time" 4.92008e-11
"group" 5.54236e-05
3.46084e-18
-1.38778e-17
-1.61027e-18
1.38778e-17
-0.000272671
-0.000122450
0.000173868
0.000221253
0.000269302
0.000384930
-0.000378513
-0.000275719
0.000365415
0.000838540
-0.000392619
-0.000811336
1.66565e-20
1.38778e-17
4.50998e-19
-8.67362e-18
5.54236e-05
1.71791
1.30449e-17
2.91593
0.915926
1.46238e-15
0.0554236
-0.00141124
-0.000203986
-0.000572696
3.00000
"time" 5.48542e-11
"group" 6.12940e-05
4.04368e-17
-1.04083e-17
-7.72512e-18
-2.42861e-17
-0.000241242
-0.000116191
0.000147036
0.000210398
0.000300697
0.000361637
-0.000396633
-0.000265701
0.000363274
0.000775977
-0.000354355
-0.000784896
-2.72022e-20
-3.46945e-18
8.65426e-19
6.93889e-18
6.12940e-05
1.72378
3.38520e-17
2.92720
0.927202
1.64948e-15
0.0612940
-0.00133420
-0.000220298
-0.000558227
3.00000
"time" 6.06915e-11
"group" 6.71280e-05
-4.09150e-18
2.42861e-17
-1.69756e-17
-2.27901e-27
-0.000210049
-0.000109081
0.000121181
0.000197949
0.000332385
0.000335550
-0.000413842
-0.000254093
0.000357948
0.000708456
-0.000313307
-0.000753097
-1.51749e-17
2.60209e-17
-5.35237e-18
-1.04083e-17
6.71280e-05
1.72962
-5.39007e-17
2.93817
0.938171
1.75861e-15
0.0671280
-0.00124587
-0.000239600
-0.000537417
3.00000
"time" 6.67270e-11
"group" 7.28862e-05
2.55239e-17
-6.93889e-18
2.21681e-18
-1.38778e-17
-0.000179343
-0.000101076
9.66040e-05
0.000183815
0.000363959
0.000306551
-0.000429679
-0.000240831
0.000349393
0.000636101
-0.000269931
-0.000715562
8.33235e-18
-1.73472e-18
2.28335e-18
-1.38778e-17
7.28862e-05
1.73538
-4.28556e-17
2.94873
0.948730
1.91983e-15
0.0728862
-0.00114581
-0.000261881
-0.000509706
3.00000
"time" 7.29708e-11
"group" 7.85178e-05
-8.60725e-19
-1.04083e-17
-2.35494e-17
3.46945e-17
-0.000149449
-9.21451e-05
7.36701e-05
0.000167924
0.000394910
0.000274566
-0.000443627
-0.000225849
0.000337536
0.000559115
-0.000224703
-0.000671948
-2.55482e-17
1.38778e-17
-4.07693e-18
1.21431e-17
7.85178e-05
1.74102
-1.33370e-16
2.95875
0.958753
2.03086e-15
0.0785178
-0.00103366
-0.000287076
-0.000474545
3.00000
"time" 7.94256e-11
"group" 8.39588e-05
-2.96698e-18
-1.04083e-17
4.23674e-18
-3.46945e-18
-0.000120774
-8.22760e-05
5.28119e-05
0.000150238
0.000424626
0.000239603
-0.000455132
-0.000209096
0.000322271
0.000477799
-0.000178081
-0.000621989
1.03930e-18
-3.46945e-18
2.61253e-19
1.73472e-18
8.39588e-05
1.74647
-1.60523e-16
2.96809
0.968088
1.98701e-15
0.0839588
-0.000909258
-0.000315046
-0.000431459
3.00000
"time" 8.60863e-11
"group" 8.91325e-05
3.95308e-20
-1.38778e-17
3.99160e-18
3.46945e-18
-9.38031e-05
-7.14843e-05
3.45116e-05
0.000130776
0.000452417
0.000201774
-0.000463655
-0.000190536
0.000303463
0.000392551
-0.000130453
-0.000565561
3.83917e-18
5.20417e-18
5.78031e-19
-1.04083e-17
8.91325e-05
1.75165
-1.54704e-16
2.97656
0.976560
1.95296e-15
0.0891325
-0.000772664
-0.000345562
-0.000380113
3.00000
"time" 9.29409e-11
"group" 9.39537e-05
-3.46940e-20
-1.38778e-17
2.14786e-19
1.38778e-17
-6.90678e-05
-5.98158e-05
1.92703e-05
0.000109613
0.000477558
0.000161312
-0.000468714
-0.000170157
0.000280953
0.000303827
-8.20704e-05
-0.000502710
3.66425e-18
3.46945e-18
5.64883e-19
-1.04083e-17
9.39537e-05
1.75647
-1.38068e-16
2.98399
0.983988
2.01473e-15
0.0939537
-0.000624196
-0.000378317
-0.000320368
3.00000
"time" 9.99757e-11
"group" 9.83338e-05
-7.77911e-18
3.46945e-18
-1.41715e-18
-2.08167e-17
-4.71119e-05
-4.73423e-05
7.57236e-06
8.68818e-05
0.000499361
0.000118542
-0.000469943
-0.000147960
0.000254558
0.000212083
-3.29914e-05
-0.000433650
-6.36075e-18
-8.67362e-18
-1.04531e-18
1.56125e-17
9.83338e-05
1.76086
-1.59640e-16
2.99019
0.990192
1.92834e-15
0.0983338
-0.000464362
-0.000412966
-0.000252279
3.00000
"time" 1.07182e-10
"group" 0.000102187
-2.14990e-17
-4.30479e-42
3.88013e-18
2.77556e-17
-2.84569e-05
-3.41495e-05
-1.39727e-07
6.27461e-05
0.000517230
7.38396e-05
-0.000467116
-0.000123953
0.000224061
0.000117679
1.69625e-05
-0.000358703
6.71544e-19
-1.73472e-18
1.75102e-19
1.73472e-18
0.000102187
1.76472
-1.63140e-16
2.99501
0.995007
1.81144e-15
0.102187
-0.000293720
-0.000449178
-0.000176041
3.00000
"time" 1.14563e-10
"group" 0.000105429
6.15976e-19
-1.38778e-17
2.80039e-18
-1.38778e-17
-1.35885e-05
-2.03214e-05
-3.46564e-06
3.73755e-05
0.000530693
2.75746e-05
-0.000460144
-9.81238e-05
0.000189189
2.08053e-05
6.82217e-05
-0.000278216
1.06326e-18
-1.73472e-18
1.48434e-19
-5.20417e-18
0.000105429
1.76797
-1.59932e-16
2.99828
0.998282
1.71715e-15
0.105429
-0.000112694
-0.000486701
-9.18882e-05
3.00000
"time" 1.22141e-10
"group" 0.000107980
2.51601e-18
3.46945e-18
8.16032e-19
-2.05302e-27
-2.97310e-06
-5.92548e-06
-2.01789e-06
1.09165e-05
0.000539402
-1.99441e-05
-0.000449041
-7.04178e-05
0.000149570
-7.85808e-05
0.000121470
-0.000192460
1.41053e-18
1.73472e-18
2.19108e-19
1.73472e-18
0.000107980
1.77053
-1.52533e-16
2.99987
0.999871
1.69518e-15
0.107980
7.86134e-05
-0.000525417
3.29020e-08
3.00000
"time" 1.29965e-10
"group" 0.000109749
1.63321e-20
-6.93889e-18
2.52894e-19
3.46945e-18
2.89479e-06
9.00196e-06
4.63821e-06
-1.65350e-05
0.000543096
-6.85099e-05
-0.000433877
-4.07090e-05
0.000104674
-0.000180812
0.000177658
-0.000101520
1.64698e-18
5.20417e-18
2.54740e-19
-8.67362e-18
0.000109749
1.77231
-1.42390e-16
2.99961
0.999611
1.72037e-15
0.109749
0.000280624
-0.000565397
9.98130e-05
3.00000
"time" 1.38124e-10
"group" 0.000110624
6.74241e-18
-3.46945e-18
2.04211e-18
6.93889e-18
3.40477e-06
2.44753e-05
1.70887e-05
-4.49688e-05
0.000541528
-0.000118076
-0.000414704
-8.74839e-06
5.36855e-05
-0.000286609
0.000238067
-5.14399e-06
5.27470e-18
1.73472e-18
8.24979e-19
-6.93889e-18
0.000110624
1.77319
-1.13246e-16
2.99729
0.997286
1.80189e-15
0.110624
0.000494606
-0.000606975
0.000207997
3.00000
"time" 1.46784e-10
"group" 0.000110437
-2.28389e-18
3.46945e-18
-2.51872e-18
-1.73472e-17
-2.34652e-06
4.06038e-05
3.62829e-05
-7.45402e-05
0.000534353
-0.000168880
-0.000391430
2.59571e-05
-4.77649e-06
-0.000397363
0.000304534
9.76065e-05
-5.81742e-18
-1.73472e-18
-9.52741e-19
1.56125e-17
0.000110437
1.77301
-1.33437e-16
2.99255
0.992553
1.75156e-15
0.110437
0.000723417
-0.000650923
0.000326053
3.00000
"time" 1.56288e-10
"group" 0.000108887
-1.90423e-20
6.93889e-18
-1.91977e-18
-2.19474e-27
-1.60294e-05
5.77310e-05
6.41144e-05
-0.000105816
0.000520807
-0.000221840
-0.000363488
6.45201e-05
-7.35237e-05
-0.000516087
0.000380228
0.000209383
-5.87978e-19
-3.46945e-18
-4.38551e-20
5.20417e-18
0.000108887
1.77147
-1.43322e-16
2.98474
0.984739
1.78825e-15
0.108887
0.000973841
-0.000698990
0.000457754
3.00000
"time" 1.67619e-10
"group" 0.000105195
1.00476e-20
6.93889e-18
7.94995e-19
-1.04083e-17
-4.20697e-05
7.70582e-05
0.000105892
-0.000140881
0.000498447
-0.000280346
-0.000328458
0.000110356
-0.000160601
-0.000651821
0.000473305
0.000339117
3.12070e-19
-3.46945e-18
4.12052e-20
8.67362e-18
0.000105195
1.76779
-1.45570e-16
2.97200
0.971996
1.77965e-15
0.105195
0.00126708
-0.000756300
0.000615257
3.00000
"time" 1.79904e-10
"group" 9.89774e-05
-2.07891e-21
-7.17465e-43
-7.10780e-19
1.73472e-18
-8.15570e-05
9.61610e-05
0.000160572
-0.000175176
0.000468654
-0.000336666
-0.000290546
0.000158558
-0.000259321
-0.000788056
0.000575408
0.000471969
-6.31768e-19
-1.73472e-18
-1.02078e-19
1.73472e-18
9.89774e-05
1.76159
-1.51057e-16
2.95426
0.954257
1.78530e-15
0.0989774
0.00157051
-0.000818278
0.000782451
3.00000
"time" 1.90833e-10
"group" 9.16157e-05
1.55273e-17
-5.20417e-18
-5.33543e-20
-1.73472e-17
-0.000125706
0.000110959
0.000216093
-0.000201347
0.000438977
-0.000378888
-0.000258695
0.000198607
-0.000348430
-0.000894643
0.000663471
0.000579602
1.70775e-18
3.46945e-18
2.71483e-19
-6.93889e-18
9.16157e-05
1.75424
-1.41124e-16
2.93538
0.935376
1.85015e-15
0.0916157
0.00181798
-0.000872462
0.000923334
3.00000
"time" 1.99090e-10
"group" 8.50012e-05
-4.52368e-18
5.20417e-18
1.62902e-19
6.93889e-18
-0.000164081
0.000120467
0.000261495
-0.000217881
0.000415439
-0.000404981
-0.000236656
0.000226198
-0.000414894
-0.000962849
0.000725413
0.000652331
2.35553e-18
-1.73472e-18
3.63811e-19
8.67362e-19
8.50012e-05
1.74763
-1.26827e-16
2.91940
0.919400
1.92371e-15
0.0850012
0.00198511
-0.000912256
0.00102227
3.00000
"time" 2.06095e-10
"group" 7.87421e-05
-1.32609e-20
-3.46945e-18
-6.20422e-18
-2.37860e-27
-0.000199490
0.000127504
0.000301948
-0.000229963
0.000395422
-0.000423589
-0.000219657
0.000247823
-0.000470547
-0.00101265
0.000774656
0.000708544
-7.62678e-18
3.46945e-18
-1.24448e-18
6.93889e-18
7.87421e-05
1.74138
-1.56459e-16
2.90483
0.904831
1.93742e-15
0.0787421
0.00211412
-0.000945801
0.00110147
3.00000
"time" 2.12735e-10
"group" 7.23138e-05
1.40899e-20
6.93889e-18
3.49751e-18
3.46945e-18
-0.000235109
0.000133310
0.000341600
-0.000239800
0.000376762
-0.000438208
-0.000205307
0.000266752
-0.000522590
-0.00105303
0.000818577
0.000757040
3.09856e-19
-1.73472e-18
1.32546e-19
3.46945e-18
7.23138e-05
1.73495
-1.63287e-16
2.89027
0.890272
1.86119e-15
0.0723138
0.00222526
-0.000977478
0.00117223
3.00000
"time" 2.19188e-10
"group" 6.56513e-05
6.43183e-21
1.38778e-17
1.67152e-18
-6.93889e-18
-0.000271391
0.000138061
0.000381041
-0.000247711
0.000359053
-0.000449269
-0.000193277
0.000283493
-0.000572173
-0.00108523
0.000858282
0.000799125
1.89561e-18
-6.93889e-18
2.77472e-19
8.67362e-18
6.56513e-05
1.72829
-1.58314e-16
2.87552
0.875518
1.83517e-15
0.0656513
0.00232133
-0.00100782
0.00123609
3.00000
"time" 2.25468e-10
"group" 5.88235e-05
-5.53978e-20
-1.38778e-17
-2.78889e-18
-2.33263e-27
-0.000308007
0.000141785
0.000419985
-0.000253763
0.000342334
-0.000456852
-0.000183569
0.000298086
-0.000619205
-0.00110950
0.000893814
0.000834892
5.73171e-19
5.20417e-18
8.27654e-20
-1.73472e-18
5.88235e-05
1.72147
-1.54780e-16
2.86068
0.860683
1.90548e-15
0.0588235
0.00240244
-0.00103664
0.00129294
3.00000
"time" 2.31620e-10
"group" 5.18518e-05
-8.38154e-22
-2.08167e-17
8.58632e-19
6.93889e-18
-0.000344867
0.000144552
0.000458413
-0.000258098
0.000326534
-0.000461165
-0.000176059
0.000310690
-0.000663943
-0.00112634
0.000925516
0.000864765
-2.76958e-19
0.00000
-4.61616e-20
-8.67362e-18
5.18518e-05
1.71450
-1.54688e-16
2.84579
0.845785
1.90082e-15
0.0518518
0.00246953
-0.00106400
0.00134319
3.00000
"time" 2.37694e-10
"group" 4.47378e-05
7.19104e-20
2.86986e-42
-3.60962e-18
-1.38778e-17
-0.000381974
0.000146420
0.000496385
-0.000260831
0.000311541
-0.000462382
-0.000170593
0.000321434
-0.000706682
-0.00113614
0.000953686
0.000889133
-3.14459e-18
1.73472e-18
-5.10203e-19
3.46945e-18
4.47378e-05
1.70739
-1.66213e-16
2.83081
0.830806
1.92327e-15
0.0447378
0.00252339
-0.00108999
0.00138725
3.00000
"time" 2.43725e-10
"group" 3.74921e-05
9.01165e-18
3.46945e-18
-2.53557e-19
1.38778e-17
-0.000419279
0.000147419
0.000533888
-0.000262027
0.000297259
-0.000460628
-0.000167003
0.000330373
-0.000747573
-0.00113907
0.000978433
0.000908210
4.03866e-19
5.20417e-18
1.00829e-19
-1.73472e-18
3.74921e-05
1.70015
-1.68115e-16
2.81575
0.815755
1.94513e-15
0.0374921
0.00256441
-0.00111455
0.00142534
3.00000
"time" 2.49738e-10
"group" 3.01306e-05
-1.20742e-17
1.04083e-17
-8.51469e-18
-2.08167e-17
-0.000456697
0.000147563
0.000570859
-0.000261726
0.000283598
-0.000456025
-0.000165080
0.000337507
-0.000786680
-0.00113519
0.000999734
0.000922133
-1.17680e-17
-1.04083e-17
-1.93545e-18
1.56125e-17
3.01306e-05
1.69279
-2.11873e-16
2.80066
0.800659
1.92074e-15
0.0301306
0.00259276
-0.00113758
0.00145757
3.00000
"time" 2.55756e-10
"group" 2.26690e-05
2.98900e-18
3.46945e-18
5.59420e-18
-6.93889e-18
-0.000494139
0.000146862
0.000607228
-0.000259952
0.000270460
-0.000448701
-0.000164565
0.000342805
-0.000824030
-0.00112445
0.00101748
0.000931004
3.25832e-18
-8.67362e-18
6.56043e-19
1.04083e-17
2.26690e-05
1.68533
-2.12944e-16
2.78555
0.785547
1.85099e-15
0.0226690
0.00260849
-0.00115894
0.00148404
3.00000
"time" 2.61799e-10
"group" 1.51228e-05
-2.86180e-17
3.46945e-18
-1.62928e-19
4.51028e-17
-0.000531513
0.000145316
0.000642913
-0.000256716
0.000257737
-0.000438793
-0.000165152
0.000346208
-0.000859603
-0.00110676
0.00103148
0.000934889
-6.81848e-20
-6.93889e-18
-6.20321e-20
-1.73472e-18
1.51228e-05
1.67778
-2.14386e-16
2.77045
0.770455
1.82894e-15
0.0151228
0.00261158
-0.00117844
0.00150481
3.00000
"time" 2.67886e-10
"group" 7.51044e-06
9.48821e-18
-6.93889e-18
1.36343e-18
-1.04083e-17
-0.000568709
0.000142921
0.000677808
-0.000252019
0.000245317
-0.000426444
-0.000166502
0.000347629
-0.000893314
-0.00108196
0.00104146
0.000933822
-8.62154e-19
3.46945e-18
-1.35702e-19
1.73472e-18
7.51044e-06
1.67017
-2.17947e-16
2.75543
0.755425
1.77239e-15
0.00751044
0.00260188
-0.00119587
0.00151992
3.00000
"time" 2.74031e-10
"group" -1.44517e-07
6.59570e-20
-1.04083e-17
-7.20061e-19
1.04083e-17
-0.000605588
0.000139670
0.000711777
-0.000245859
0.000233089
-0.000411790
-0.000168264
0.000346965
-0.000924995
-0.00104989
0.00104709
0.000927797
-6.57202e-19
3.46945e-18
-9.77345e-20
-1.73472e-18
-1.44517e-07
1.66252
-2.21473e-16
2.74052
0.740517
1.75858e-15
-0.000144517
0.00257924
-0.00121098
0.00152935
3.00000
"time" 2.80243e-10
"group" -7.81092e-06
2.83609e-20
1.38778e-17
-2.50066e-18
-2.00706e-27
-0.000641973
0.000135558
0.000744648
-0.000238234
0.000220945
-0.000394962
-0.000170094
0.000344111
-0.000954375
-0.00101040
0.00104799
0.000916780
-3.72768e-18
-6.93889e-18
-6.03436e-19
1.21431e-17
-7.81092e-06
1.65485
-2.36620e-16
2.72581
0.725808
1.73896e-15
-0.00781092
0.00254346
-0.00122349
0.00153306
3.00000
"time" 2.86525e-10
"group" -1.54490e-05
-3.12047e-20
-3.46945e-18
-5.28499e-19
-6.93889e-18
-0.000677649
0.000130587
0.000776213
-0.000229151
0.000208789
-0.000376081
-0.000171680
0.000338972
-0.000981083
-0.000963449
0.00104381
0.000900721
8.61309e-20
-6.93889e-18
5.47256e-20
-3.46945e-18
-1.54490e-05
1.64721
-2.40925e-16
2.71139
0.711392
1.74852e-15
-0.0154490
0.00249443
-0.00123310
0.00153098
3.00000
"time" 2.92875e-10
"group" -2.30110e-05
2.15880e-20
1.38778e-17
1.32318e-18
-1.99557e-27
-0.000712371
0.000124768
0.000806239
-0.000218637
0.000196536
-0.000355255
-0.000172762
0.000331481
-0.00100466
-0.000909113
0.00103420
0.000879571
8.22441e-19
-1.73472e-18
1.18806e-19
3.46945e-18
-2.30110e-05
1.63965
-2.39357e-16
2.69738
0.697381
1.73551e-15
-0.0230110
0.00243211
-0.00123951
0.00152300
3.00000
"time" 2.99289e-10
"group" -3.04438e-05
-1.91092e-20
6.93889e-18
-1.64279e-18
-6.93889e-18
-0.000745878
0.000118123
0.000834487
-0.000206732
0.000184113
-0.000332576
-0.000173144
0.000321607
-0.00102458
-0.000847604
0.00101888
0.000853295
-2.01603e-18
-5.20417e-18
-3.32372e-19
3.46945e-18
-3.04438e-05
1.63221
-2.46763e-16
2.68389
0.683894
1.73006e-15
-0.0304438
0.00235667
-0.00124247
0.00150906
3.00000
"time" 3.05760e-10
"group" -3.76932e-05
-8.45527e-18
1.04083e-17
-4.45469e-19
6.93889e-18
-0.000777917
0.000110684
0.000860726
-0.000193494
0.000171465
-0.000308126
-0.000172695
0.000309357
-0.00104029
-0.000779257
0.000997664
0.000821880
-2.87969e-18
-6.93889e-18
-4.45893e-19
8.67362e-18
-3.76932e-05
1.62496
-2.60225e-16
2.67105
0.671050
1.68001e-15
-0.0376932
0.00226836
-0.00124176
0.00148910
3.00000
"time" 3.12284e-10
"group" -4.47072e-05
3.77263e-17
-3.46945e-18
-1.00557e-18
-3.46945e-17
-0.000808256
0.000102490
0.000884755
-0.000178988
0.000158545
-0.000281966
-0.000171343
0.000294764
-0.00105125
-0.000704485
0.000970409
0.000785328
6.99534e-18
5.20417e-18
1.13198e-18
-1.21431e-17
-4.47072e-05
1.61795
-2.36826e-16
2.65896
0.658962
1.83746e-15
-0.0447072
0.00216757
-0.00123718
0.00146309
3.00000
"time" 3.18865e-10
"group" -5.14381e-05
-3.29017e-18
6.93889e-18
-2.50228e-18
3.46945e-18
-0.000836694
9.35775e-05
0.000906398
-0.000163281
0.000145319
-0.000254142
-0.000169059
0.000277881
-0.00105695
-0.000623731
0.000937038
0.000743642
3.79286e-18
-6.93889e-18
5.59143e-19
1.73472e-18
-5.14381e-05
1.61121
-2.14912e-16
2.64773
0.647731
2.02848e-15
-0.0514381
0.00205474
-0.00122860
0.00143100
3.00000
"time" 3.25509e-10
"group" -5.78429e-05
3.15277e-17
6.93889e-18
-1.92248e-18
-4.51028e-17
-0.000863060
8.39827e-05
0.000925505
-0.000146428
0.000131759
-0.000224679
-0.000165844
0.000258763
-0.00105688
-0.000537421
0.000897488
0.000696818
-2.75947e-19
-8.67362e-18
-5.41078e-20
-2.75779e-28
-5.78429e-05
1.60480
-2.08917e-16
2.63745
0.637448
2.13378e-15
-0.0578429
0.00193024
-0.00121592
0.00139282
3.00000
"time" 3.32229e-10
"group" -6.38811e-05
1.43038e-17
-1.04083e-17
3.91970e-19
-6.93889e-18
-0.000887198
7.37335e-05
0.000941940
-0.000128475
0.000117846
-0.000193586
-0.000161719
0.000237459
-0.00105058
-0.000445941
0.000851696
0.000644822
6.80139e-18
1.04083e-17
1.08120e-18
-1.21431e-17
-6.38811e-05
1.59876
-1.79109e-16
2.62820
0.628199
2.30689e-15
-0.0638811
0.00179443
-0.00119902
0.00134849
3.00000
"time" 3.39046e-10
"group" -6.95130e-05
-8.58925e-18
1.04083e-17
-1.36741e-18
1.04083e-17
-0.000908958
6.28501e-05
0.000955561
-0.000109453
0.000103568
-0.000160851
-0.000156721
0.000214005
-0.00103755
-0.000349618
0.000799580
0.000587586
-4.23816e-18
-8.67362e-18
-7.17028e-19
8.67362e-18
-6.95130e-05
1.59312
-1.87369e-16
2.62007
0.620068
2.30391e-15
-0.0695130
0.00164753
-0.00117777
0.00129791
3.00000
"time" 3.45987e-10
"group" -7.46967e-05
-4.85940e-20
-3.46945e-18
-2.35511e-18
-1.04083e-17
-0.000928178
5.13435e-05
0.000966211
-8.93761e-05
8.89241e-05
-0.000126444
-0.000150898
0.000188418
-0.00101729
-0.000248723
0.000741021
0.000524995
-2.85436e-18
-5.20417e-18
-4.15169e-19
8.67362e-18
-7.46967e-05
1.58794
-2.01316e-16
2.61315
0.613146
2.30583e-15
-0.0746967
0.00148964
-0.00115205
0.00124091
3.00000
"time" 3.53085e-10
"group" -7.93850e-05
-2.44254e-17
3.46945e-18
1.29257e-18
2.08167e-17
-0.000944671
3.92139e-05
0.000973697
-6.82396e-05
7.39220e-05
-9.03045e-05
-0.000144312
0.000160695
-0.000989258
-0.000143458
0.000675849
0.000456867
-1.99862e-18
-1.73472e-18
-3.03801e-19
1.04083e-17
-7.93850e-05
1.58324
-2.14388e-16
2.60754
0.607536
2.22617e-15
-0.0793850
0.00132071
-0.00112166
0.00117725
3.00000
"time" 3.60386e-10
"group" -8.35221e-05
8.18544e-18
-6.93889e-18
2.43548e-18
1.04083e-17
-0.000958204
2.64485e-05
0.000977772
-4.60163e-05
5.85837e-05
-5.23358e-05
-0.000137054
0.000130806
-0.000952806
-3.39544e-05
0.000603826
0.000382934
-3.31830e-18
6.93889e-18
-5.26394e-19
-3.46945e-18
-8.35221e-05
1.57910
-2.33298e-16
2.60336
0.603363
2.05441e-15
-0.0835221
0.00114050
-0.00108634
0.00110654
3.00000
"time" 3.67949e-10
"group" -8.70384e-05
5.09224e-20
-3.46945e-18
8.20470e-19
3.46945e-18
-0.000968474
1.30165e-05
0.000978104
-2.26470e-05
4.29474e-05
-1.23802e-05
-0.000129248
9.86806e-05
-0.000907152
7.97525e-05
0.000524608
0.000302791
5.51190e-18
-6.93889e-18
8.96159e-19
-5.20417e-18
-8.70384e-05
1.57558
-2.14502e-16
2.60078
0.600785
2.10701e-15
-0.0870384
0.000948437
-0.00104574
0.00102819
3.00000
"time" 3.75856e-10
"group" -8.98433e-05
-1.38332e-20
-3.46945e-18
-2.96057e-18
1.04083e-17
-0.000975066
-1.14064e-06
0.000974230
1.97640e-06
2.70748e-05
2.98206e-05
-0.000121083
6.41878e-05
-0.000851261
0.000197774
0.000437676
0.000215811
-2.43612e-18
1.04083e-17
-4.20733e-19
-3.46945e-18
-8.98433e-05
1.57276
-2.20274e-16
2.60001
0.600012
2.14903e-15
-0.0898433
0.000743528
-0.000999338
0.000941302
3.00000
"time" 3.84232e-10
"group" -9.18097e-05
2.08192e-17
-6.93889e-18
-1.03599e-19
-2.77556e-17
-0.000977374
-1.61298e-05
0.000965457
2.80475e-05
1.10623e-05
7.47057e-05
-0.000112853
2.70848e-05
-0.000783646
0.000320480
0.000342198
0.000120968
4.37732e-18
-1.73472e-18
7.12604e-19
-6.93889e-18
-9.18097e-05
1.57079
-1.99943e-16
2.60134
0.601344
2.28560e-15
-0.0918097
0.000523951
-0.000946328
0.000844431
3.00000
"time" 3.93282e-10
"group" -9.27438e-05
-7.11215e-18
7.17465e-43
-9.11968e-20
6.93889e-18
-0.000974442
-3.21554e-05
0.000950664
5.59328e-05
-4.93793e-06
0.000123077
-0.000105035
-1.31041e-05
-0.000701903
0.000448788
0.000236683
1.64317e-05
-6.91136e-20
0.00000
-3.06713e-20
-2.60458e-28
-9.27438e-05
1.56985
-1.93513e-16
2.60525
0.605255
2.33372e-15
-0.0927438
0.000286263
-0.000885346
0.000735051
3.00000
"time" 4.03408e-10
"group" -9.23008e-05
-1.78282e-21
1.38778e-17
-1.27474e-18
-6.93889e-18
-0.000964503
-4.96649e-05
0.000927738
8.64297e-05
-2.06736e-05
0.000176612
-9.84839e-05
-5.74546e-05
-0.000601407
0.000585054
0.000117964
-0.000101612
-1.06165e-18
0.00000
-1.65731e-19
-1.73472e-18
-9.23008e-05
1.57028
-1.97183e-16
2.61261
0.612609
2.36821e-15
-0.0923008
2.30078e-05
-0.000813665
0.000608062
3.00000
"time" 4.15686e-10
"group" -8.96508e-05
4.57853e-18
-1.04083e-17
-3.85048e-20
1.21431e-17
-0.000943178
-6.99865e-05
0.000891274
0.000121891
-3.56842e-05
0.000240012
-9.50526e-05
-0.000109275
-0.000469809
0.000737120
-2.33263e-05
-0.000243985
2.57040e-18
0.00000
4.08942e-19
-5.20417e-18
-8.96508e-05
1.57292
-1.80301e-16
2.62558
0.625576
2.48266e-15
-0.0896508
-0.000287640
-0.000723794
0.000449481
3.00000
"time" 4.28484e-10
"group" -8.44694e-05
1.64269e-17
-1.73472e-18
-1.46013e-18
-1.73472e-17
-0.000910452
-8.95797e-05
0.000843827
0.000156204
-4.49328e-05
0.000303054
-9.88243e-05
-0.000159297
-0.000325971
0.000875499
-0.000161732
-0.000387796
-2.09770e-18
-1.73472e-18
-3.40594e-19
4.33681e-18
-8.44694e-05
1.57809
-1.90695e-16
2.64350
0.643497
2.50719e-15
-0.0844694
-0.000593254
-0.000629942
0.000282245
3.00000
"time" 4.39572e-10